# FEASST data file 
# pentanethiol 
# trappe_parameters_81.txt 
# SCCCCC 

7 atoms 
6 bonds 

7 atom types 
6 bond types 

-4.0821 2.5111999999999997 xlo xhi 
-1.3267 0.20580000000000004 ylo yhi 
-1.2067999999999999 0.0 zlo zhi 

Masses

1 14.027 
2 14.027 
6 32.06 
3 14.027 
4 14.027 
5 15.035 
7 1.008 

Pair Coeffs

1 0.38246528043504907 3.950 
2 0.38246528043504907 3.95 
3 0.38246528043504907 3.95 
4 0.38246528043504907 3.95 
5 0.8148173365790176 3.75 
6 1.9289553274115518 3.620 
7 0.0 0.000 

Bond Coeffs

1 -1 1.54 
2 -1 1.8200 
3 -1 1.54 
4 -1 1.54 
5 -1 1.54 
6 -1 1.34 

Atoms

1 1 1 0.171 0.0 0.0 0.0 0 0 0
2 1 2 0.0 -1.3287 -0.7605 -0.011800000000000001 0 0 0
6 1 6 -0.377 -4.0821 -0.7026 -0.0342 0 0 0
3 1 3 0.0 1.1903 -0.9587000000000001 -0.0198 0 0 0
4 1 4 0.0 -2.5099 0.20580000000000004 -0.028 0 0 0
5 1 5 0.0 2.5111999999999997 -0.2062 -0.042300000000000004 0 0 0
7 1 7 0.206 -3.8964 -1.3267 -1.2067999999999999 0 0 0

Bonds

1 1 1 2
2 2 1 6
3 3 2 3
4 4 3 4
5 5 4 5
6 6 6 7
