# FEASST data file 
# propan-2-ol 
# trappe_parameters_38.txt 
# CC(C)O 

5 atoms 
4 bonds 

5 atom types 
4 bond types 

-2.5202 0.0 xlo xhi 
-0.0006999999999999229 2.0443 ylo yhi 
-0.9782000000000001 0.478 zlo zhi 

Masses

1 15.035 
2 13.018999999999998 
3 15.035 
4 15.999 
5 1.008 

Pair Coeffs

1 0.8148173365790176 3.75 
2 0.0831446261815324 4.33 
3 0.8148173365790176 3.75 
4 0.7732450234882514 3.02 
5 0.0 0.0 

Bond Coeffs

1 -1 1.54 
2 -1 1.54 
3 -1 1.43 
4 -1 0.945 

Atoms

1 1 1 0.0 0.0 0.0 0.0 0 0 0
2 1 2 0.265 -1.2603 0.7048000000000001 0.478 0 0 0
3 1 3 0.0 -2.5202 -0.0006999999999999229 0.0 0 0 0
4 1 4 -0.700 -1.2607 2.0443 -0.0063 0 0 0
5 1 5 0.435 -1.2609 2.0113000000000003 -0.9782000000000001 0 0 0

Bonds

1 1 1 2
2 2 2 3
3 3 2 4
4 4 4 5
