# FEASST data file 
# propene 
# trappe_parameters_53.txt 
# C=CC 

3 atoms 
2 bonds 

3 atom types 
2 bond types 

-2.4993 0.0 xlo xhi 
-0.034 0.6433 ylo yhi 
0.0 0.0 zlo zhi 

Masses

1 15.035 
2 13.018999999999998 
3 14.027 

Pair Coeffs

1 0.8148173365790176 3.75 
2 0.3907797430532023 3.73 
3 0.7067293225430255 3.675 

Bond Coeffs

1 -1 1.54 
2 -1 1.33 

Atoms

1 1 1 0.0 0.0 0.0 0.0 0 0 0
2 1 2 0.0 -1.3461 0.6433 0.0 0 0 0
3 1 3 0.0 -2.4993 -0.034 0.0 0 0 0

Bonds

1 1 1 2
2 2 2 3
