# FEASST data file 
# cyclooctadecane 
# trappe_parameters_115.txt 
# C1CCCCCCCCCCCCCCCCC1 

18 atoms 
18 bonds 

18 atom types 
18 bond types 

-1.0853000000000002 6.871 xlo xhi 
-0.7391999999999999 5.3049 ylo yhi 
-0.48779999999999996 1.1243 zlo zhi 

Masses

1 14.027 
1 14.027 
2 14.027 
3 14.027 
3 14.027 
4 14.027 
4 14.027 
5 14.027 
5 14.027 
6 14.027 
8 14.027 
8 14.027 
9 14.027 
10 14.027 
11 14.027 
12 14.027 
12 14.027 
15 14.027 

Pair Coeffs

1 0.42403759352581527 3.890 
2 0.42403759352581527 3.890 
3 0.42403759352581527 3.890 
4 0.42403759352581527 3.890 
5 0.42403759352581527 3.890 
6 0.42403759352581527 3.890 
7 0.42403759352581527 3.890 
8 0.42403759352581527 3.890 
9 0.42403759352581527 3.890 
10 0.42403759352581527 3.890 
11 0.42403759352581527 3.890 
12 0.42403759352581527 3.890 
13 0.42403759352581527 3.890 
14 0.42403759352581527 3.890 
15 0.42403759352581527 3.890 
16 0.42403759352581527 3.890 
17 0.42403759352581527 3.890 
18 0.42403759352581527 3.890 

Bond Coeffs

1 -1 1.54 
2 -1 1.54 
3 -1 1.54 
4 -1 1.54 
5 -1 1.54 
6 -1 1.54 
7 -1 1.54 
8 -1 1.54 
9 -1 1.54 
10 -1 1.54 
11 -1 1.54 
12 -1 1.54 
13 -1 1.54 
14 -1 1.54 
15 -1 1.54 
16 -1 1.54 
17 -1 1.54 
18 -1 1.54 

Atoms

1 1 1 0.000 0.0 0.0 0.0 0 0 0
1 1 1 0.000 -1.0853000000000002 0.8361000000000001 0.6952 0 0 0
2 1 2 0.000 -0.7481 2.3199 0.9009 0 0 0
3 1 3 0.000 6.3624 -0.4678 0.1755 0 0 0
3 1 3 0.000 6.6358 0.9771000000000001 0.6161 0 0 0
4 1 4 0.000 4.1635 5.0206 -0.07329999999999998 0 0 0
4 1 4 0.000 2.6571 5.3049 -0.0022000000000000075 0 0 0
5 1 5 0.000 0.3075000000000001 4.362299999999999 -0.22199999999999998 0 0 0
5 1 5 0.000 1.8016999999999999 4.0397 -0.0912 0 0 0
6 1 6 0.000 -0.5381 3.0959 -0.4048 0 0 0
8 1 8 0.000 6.4032 2.0126 -0.48779999999999996 0 0 0
8 1 8 0.000 6.871 3.4228 -0.10999999999999999 0 0 0
9 1 9 0.000 6.2051 4.0417000000000005 1.1243 0 0 0
10 1 10 0.000 4.6769 4.1505 1.0772 0 0 0
11 1 11 0.000 4.9746 -0.7391999999999999 -0.41529999999999995 0 0 0
12 1 12 0.000 3.8289999999999997 -0.36719999999999997 0.5257000000000001 0 0 0
12 1 12 0.000 2.4634 -0.5945 -0.129 0 0 0
15 1 15 0.000 1.3534 0.039200000000000124 0.7121999999999999 0 0 0

Bonds

1 1 1 2
2 2 2 3
3 3 3 4
4 4 4 5
5 5 5 6
6 6 6 7
7 7 7 8
8 8 8 9
9 9 9 10
10 10 10 11
11 11 11 12
12 12 12 13
13 13 13 14
14 14 14 15
15 15 15 16
16 16 16 17
17 17 17 18
18 18 18 1
