# FEASST data file 
# 1-butene 
# trappe_parameters_51.txt 
# C=CCC 

4 atoms 
3 bonds 

4 atom types 
3 bond types 

0.0 3.3186 xlo xhi 
-0.09689999999999999 0.9823 ylo yhi 
-0.08379999999999999 0.5650999999999999 zlo zhi 

Masses

1 14.027 
2 13.018999999999998 
3 14.027 
4 15.035 

Pair Coeffs

1 0.7067293225430255 3.675 
2 0.3907797430532023 3.73 
3 0.38246528043504907 3.95 
4 0.8148173365790176 3.75 

Bond Coeffs

1 -1 1.33 
2 -1 1.54 
3 -1 1.54 

Atoms

1 1 1 0.0 0.0 0.0 0.0 0 0 0
2 1 2 0.0 0.9790000000000001 0.7154 0.5650999999999999 0 0 0
3 1 3 0.0 2.3039 0.9823 -0.08379999999999999 0 0 0
4 1 4 0.0 3.3186 -0.09689999999999999 0.2603 0 0 0

Bonds

1 1 1 2
2 2 2 3
3 3 3 4
