# FEASST data file 
# ethanethiol 
# trappe_parameters_77.txt 
# SCC 

4 atoms 
3 bonds 

4 atom types 
3 bond types 

-1.1575000000000002 2.3655999999999997 xlo xhi 
-0.9803999999999999 0.20550000000000002 ylo yhi 
0.0 0.0 zlo zhi 

Masses

1 14.027 
2 15.035 
3 32.06 
4 1.008 

Pair Coeffs

1 0.38246528043504907 3.950 
2 0.8148173365790176 3.75 
3 1.9289553274115518 3.620 
4 0.0 0.000 

Bond Coeffs

1 -1 1.54 
2 -1 1.8200 
3 -1 1.34 

Atoms

1 1 1 0.171 0.0 0.0 0.0 0 0 0
2 1 2 0.0 -1.1575000000000002 -0.9803999999999999 0.0 0 0 0
3 1 3 -0.377 1.5835 -0.8837999999999999 0.0 0 0 0
4 1 4 0.206 2.3655999999999997 0.20550000000000002 0.0 0 0 0

Bonds

1 1 1 2
2 2 1 3
3 3 3 4
