# FEASST data file 
# "2,2-dimethylpropane" 
# trappe_parameters_17.txt 
# CC(C)(C)C 

5 atoms 
4 bonds 

5 atom types 
4 bond types 

0.0 2.2428 xlo xhi 
-1.4518 0.8721999999999999 ylo yhi 
-2.0547 0.21320000000000006 zlo zhi 

Masses

1 15.035 
2 12.011 
3 15.035 
4 15.035 
5 15.035 

Pair Coeffs

1 0.8148173365790176 3.75 
2 0.00415723130907662 6.4 
3 0.8148173365790176 3.75 
4 0.8148173365790176 3.75 
5 0.8148173365790176 3.75 

Bond Coeffs

1 -1 1.54 
2 -1 1.54 
3 -1 1.54 
4 -1 1.54 

Atoms

1 1 1 0.0 0.0 0.0 0.0 0 0 0
2 1 2 0.0 1.3467 -0.3727 -0.6364 0 0 0
3 1 3 0.0 2.0331 -1.4518 0.21320000000000006 0 0 0
4 1 4 0.0 2.2428 0.8721999999999999 -0.7041 0 0 0
5 1 5 0.0 1.1108 -0.9112 -2.0547 0 0 0

Bonds

1 1 1 2
2 2 2 3
3 3 2 4
4 4 2 5
