# FEASST data file 
# trans-2-butene 
# trappe_parameters_58.txt 
# CC=CC 

4 atoms 
3 bonds 

4 atom types 
3 bond types 

-3.8884 0.0 xlo xhi 
-0.28669999999999995 0.507 ylo yhi 
-0.0004 0.0 zlo zhi 

Masses

1 15.035 
2 13.018999999999998 
3 13.018999999999998 
4 15.035 

Pair Coeffs

1 0.8148173365790176 3.75 
2 0.3907797430532023 3.73 
3 0.3907797430532023 3.73 
4 0.8148173365790176 3.75 

Bond Coeffs

1 -1 1.54 
2 -1 1.33 
3 -1 1.54 

Atoms

1 1 1 0.0 0.0 0.0 0.0 0 0 0
2 1 2 0.0 -1.4041 0.507 -0.0004 0 0 0
3 1 3 0.0 -2.4844 -0.28669999999999995 -0.0004 0 0 0
4 1 4 0.0 -3.8884 0.2205 0.0 0 0 0

Bonds

1 1 1 2
2 2 2 3
3 3 3 4
