# FEASST data file 
# propionitrile 
# trappe_parameters_93.txt 
# CC#N 

4 atoms 
3 bonds 

4 atom types 
3 bond types 

0.0 3.4780000000000006 xlo xhi 
-0.12300000000000022 1.028 ylo yhi 
-0.022000000000000002 0.115 zlo zhi 

Masses

1 15.035 
2 14.027 
3 12.011 
4 14.007 

Pair Coeffs

1 0.8148173365790176 3.75 
2 0.38246528043504907 3.950 
3 0.4988677570891944 3.550 
4 0.4988677570891944 2.950 

Bond Coeffs

1 -1 1.54 
2 -1 1.54 
3 -1 1.1570 

Atoms

1 1 1 0.0 0.0 0.0 0.0 0 0 0
2 1 2 0.269 1.1190000000000007 1.028 -0.022000000000000002 0 0 0
3 1 3 0.129 2.436 0.3839999999999999 0.059 0 0 0
4 1 4 -0.398 3.4780000000000006 -0.12300000000000022 0.115 0 0 0

Bonds

1 1 1 2
2 2 2 3
3 3 3 4
