# FEASST data file 
# benzene 
# trappe_parameters_64.txt 
# C1C=CC=CC=1 

6 atoms 
6 bonds 

6 atom types 
6 bond types 

-0.010299999999999976 2.4159 xlo xhi 
-2.1012 0.6884 ylo yhi 
-0.0002 0.0 zlo zhi 

Masses

1 13.018999999999998 
1 13.018999999999998 
2 13.018999999999998 
2 13.018999999999998 
3 13.018999999999998 
5 13.018999999999998 

Pair Coeffs

1 0.41988036221673863 3.695 
2 0.41988036221673863 3.695 
3 0.41988036221673863 3.695 
4 0.41988036221673863 3.695 
5 0.41988036221673863 3.695 
6 0.41988036221673863 3.695 

Bond Coeffs

1 -1 1.40 
2 -1 1.40 
3 -1 1.40 
4 -1 1.40 
5 -1 1.40 
6 -1 1.40 

Atoms

1 1 1 0.0 0.0 0.0 0.0 0 0 0
1 1 1 0.0 1.2132 0.6884 -0.0002 0 0 0
2 1 2 0.0 -0.010299999999999976 -1.3948 -0.0001 0 0 0
2 1 2 0.0 1.1925000000000001 -2.1012 -0.0001 0 0 0
3 1 3 0.0 2.4056 -1.4127 -0.0001 0 0 0
5 1 5 0.0 2.4159 -0.018000000000000016 -0.0001 0 0 0

Bonds

1 1 1 2
2 2 2 3
3 3 3 4
4 4 4 5
5 5 5 6
6 6 6 1
