# FEASST data file 
# n-perfluoropentane 
# trappe_parameters_72.txt 
# FC(F)(C(F)(F)F)C(F)(F)C(F)(F)C(F)(F)F 

5 atoms 
4 bonds 

5 atom types 
4 bond types 

0.0 3.8335 xlo xhi 
-1.6877999999999997 0.00990000000000002 ylo yhi 
-0.9221999999999999 0.318 zlo zhi 

Masses

1 69.006209489 
2 50.007806325999994 
3 50.007806325999994 
4 50.007806325999994 
5 69.006209489 

Pair Coeffs

1 0.7233582477793319 4.360 
2 0.2286477219992141 4.730 
3 0.2286477219992141 4.730 
4 0.2286477219992141 4.730 
5 0.7233582477793319 4.360 

Bond Coeffs

1 -1 1.54 
2 -1 1.54 
3 -1 1.54 
4 -1 1.54 

Atoms

1 1 1 0.000 0.0 0.0 0.0 0 0 0
2 1 2 0.000 0.764 -0.9169 -0.9221999999999999 0 0 0
3 1 3 0.000 1.9199000000000002 -1.6877999999999997 -0.3057 0 0 0
4 1 4 0.000 3.0730000000000004 -0.9182999999999999 0.318 0 0 0
5 1 5 0.000 3.8335 0.00990000000000002 -0.5957 0 0 0

Bonds

1 1 1 2
2 2 2 3
3 3 3 4
4 4 4 5
