# FEASST data file 
# octanethiol 
# trappe_parameters_82.txt 
# SCCCCCCCC 

10 atoms 
9 bonds 

10 atom types 
9 bond types 

-4.0138 6.3345 xlo xhi 
-1.6366 0.012800000000000034 ylo yhi 
-0.06849999999999999 1.2059 zlo zhi 

Masses

1 14.027 
1 14.027 
1 14.027 
9 32.06 
2 14.027 
2 14.027 
4 14.027 
5 14.027 
8 15.035 
10 1.008 

Pair Coeffs

1 0.38246528043504907 3.950 
2 0.38246528043504907 3.95 
3 0.38246528043504907 3.95 
4 0.38246528043504907 3.95 
5 0.38246528043504907 3.95 
6 0.38246528043504907 3.95 
7 0.38246528043504907 3.95 
8 0.8148173365790176 3.75 
9 1.9289553274115518 3.620 
10 0.0 0.000 

Bond Coeffs

1 -1 1.54 
2 -1 1.8200 
3 -1 1.54 
4 -1 1.54 
5 -1 1.54 
6 -1 1.54 
7 -1 1.54 
8 -1 1.54 
9 -1 1.34 

Atoms

1 1 1 0.171 0.0 0.0 0.0 0 0 0
1 1 1 0.171 -1.2676999999999998 -0.8602 0.0061 0 0 0
1 1 1 0.171 -2.5187 0.012800000000000034 0.0388 0 0 0
9 1 9 -0.377 -4.0138 -1.0165 0.041 0 0 0
2 1 2 0.0 1.2585 -0.8682 -0.06849999999999999 0 0 0
2 1 2 0.0 2.5582000000000003 -0.05839999999999995 -0.0545 0 0 0
4 1 4 0.0 3.8171999999999997 -0.9279999999999999 -0.0485 0 0 0
5 1 5 0.0 5.0809 -0.07099999999999995 0.0388 0 0 0
8 1 8 0.0 6.3345 -0.9301999999999999 0.08360000000000001 0 0 0
10 1 10 0.206 -3.7741999999999996 -1.6366 1.2059 0 0 0

Bonds

1 1 1 2
2 2 1 9
3 3 2 3
4 4 3 4
5 5 4 5
6 6 5 6
7 7 6 7
8 8 7 8
9 9 9 10
