# FEASST data file 
# 2-methyl-2-propanethiol 
# trappe_parameters_79.txt 
# SC(C)(C)C 

6 atoms 
5 bonds 

6 atom types 
5 bond types 

0.0 2.4975 xlo xhi 
-2.5149999999999997 0.0 ylo yhi 
-2.1672 0.017699999999999938 zlo zhi 

Masses

1 15.035 
2 12.011 
3 15.035 
4 15.035 
5 32.06 
6 1.008 

Pair Coeffs

1 0.8148173365790176 3.75 
2 0.00415723130907662 6.400 
3 0.8148173365790176 3.75 
4 0.8148173365790176 3.75 
5 1.9289553274115518 3.620 
6 0.0 0.000 

Bond Coeffs

1 -1 1.54 
2 -1 1.54 
3 -1 1.54 
4 -1 1.8200 
5 -1 1.34 

Atoms

1 1 1 0.0 0.0 0.0 0.0 0 0 0
2 1 2 0.171 0.49710000000000004 -1.2626 -0.7098 0 0 0
3 1 3 0.0 0.0 -2.5149999999999997 0.017699999999999938 0 0 0
4 1 4 0.0 0.02729999999999999 -1.2729 -2.1672 0 0 0
5 1 5 -0.377 2.3321 -1.2625 -0.6937 0 0 0
6 1 6 0.206 2.4975 -0.11250000000000004 -1.3641 0 0 0

Bonds

1 1 1 2
2 2 2 3
3 3 2 4
4 4 2 5
5 5 5 6
