# FEASST data file 
# "dipropyl 
# trappe_parameters_28.txt 
# CCCOCCC 

7 atoms 
6 bonds 

7 atom types 
6 bond types 

-7.3781 0.0 xlo xhi 
-0.7872999999999999 0.1264 ylo yhi 
-0.0116 0.0012000000000000005 zlo zhi 

Masses

1 15.035 
2 14.027 
3 14.027 
4 15.999 
5 14.027 
6 14.027 
7 15.035 

Pair Coeffs

1 0.8148173365790176 3.75 
2 0.38246528043504907 3.95 
3 0.38246528043504907 3.95 
4 0.4572954439984282 2.80 
5 0.38246528043504907 3.95 
6 0.38246528043504907 3.95 
7 0.8148173365790176 3.75 

Bond Coeffs

1 -1 1.54 
2 -1 1.54 
3 -1 1.41 
4 -1 1.41 
5 -1 1.54 
6 -1 1.54 

Atoms

1 1 1 0.0 0.0 0.0 0.0 0 0 0
2 1 2 0.0 -1.298 -0.7872999999999999 -0.0116 0 0 0
3 1 3 0.25 -2.514 0.1264 -0.0084 0 0 0
4 1 4 -0.500 -3.6893 -0.673 -0.0052 0 0 0
5 1 5 0.25 -4.8641 0.12620000000000003 -0.0019999999999999996 0 0 0
6 1 6 0.0 -6.0802 -0.7872999999999999 0.0012000000000000005 0 0 0
7 1 7 0.0 -7.3781 0.0001000000000000445 -0.0104 0 0 0

Bonds

1 1 1 2
2 2 2 3
3 3 3 4
4 4 4 5
5 5 5 6
6 6 6 7
