# FEASST data file 
# "2-ethylhexyl 
# trappe_parameters_100.txt 
# O=C(OCC(CC)CCCC)C=C 

13 atoms 
12 bonds 

13 atom types 
12 bond types 

-11.0669 0.0 xlo xhi 
-2.4661 0.9599000000000001 ylo yhi 
-1.5752000000000002 0.28580000000000005 zlo zhi 

Masses

1 14.027 
2 13.018999999999998 
3 12.011 
4 15.999 
5 15.999 
6 14.027 
7 13.018999999999998 
8 14.027 
12 14.027 
9 14.027 
10 14.027 
11 15.035 
13 15.035 

Pair Coeffs

1 0.7067293225430255 3.675 
2 0.43235205614396854 3.710 
3 0.3325785047261296 3.820 
4 0.4572954439984282 2.800 
5 0.6568425468341059 3.050 
6 0.38246528043504907 3.95 
7 0.0831446261815324 4.68 
8 0.38246528043504907 3.95 
9 0.38246528043504907 3.95 
10 0.38246528043504907 3.95 
11 0.8148173365790176 3.75 
12 0.38246528043504907 3.95 
13 0.8148173365790176 3.75 

Bond Coeffs

1 -1 1.33 
2 -1 1.5200 
3 -1 1.3440 
4 -1 1.2000 
5 -1 1.41 
6 -1 1.54 
7 -1 1.54 
8 -1 1.54 
9 -1 1.54 
10 -1 1.54 
11 -1 1.54 
12 -1 1.54 

Atoms

1 1 1 0.0 0.0 0.0 0.0 0 0 0
2 1 2 0.000 -1.2794999999999996 -0.25770000000000004 0.28580000000000005 0 0 0
3 1 3 0.400 -2.3526999999999996 0.27590000000000003 -0.5785 0 0 0
4 1 4 -0.250 -3.5497999999999994 -0.1322 -0.06589999999999996 0 0 0
5 1 5 -0.400 -2.1826999999999996 0.9599000000000001 -1.5752000000000002 0 0 0
6 1 6 0.25 -4.704899999999999 0.29100000000000004 -0.7772 0 0 0
7 1 7 0.0 -5.9757 -0.2378 -0.09209999999999996 0 0 0
8 1 8 0.0 -7.215299999999999 0.4121 -0.7424999999999999 0 0 0
12 1 12 0.0 -6.021199999999999 -1.7817 -0.048099999999999976 0 0 0
9 1 9 0.0 -8.5304 0.06689999999999999 -0.0363 0 0 0
10 1 10 0.0 -9.755199999999999 0.7028 -0.6995 0 0 0
11 1 11 0.0 -6.0836 -2.4661 -1.4066999999999998 0 0 0
13 1 13 0.0 -11.0669 0.34299999999999997 -0.018799999999999983 0 0 0

Bonds

1 1 1 2
2 2 2 3
3 3 3 4
4 4 3 5
5 5 4 6
6 6 6 7
7 7 7 8
8 8 7 12
9 9 8 9
10 10 9 10
11 11 10 11
12 12 12 13
