# FEASST data file 
# "2,3-dimethylbutane" 
# trappe_parameters_22.txt 
# CC(C)C(C)C 

6 atoms 
5 bonds 

6 atom types 
5 bond types 

0.0 3.561 xlo xhi 
-1.9971 0.38669999999999993 ylo yhi 
-9.999999999998899e-05 1.3056999999999999 zlo zhi 

Masses

1 15.035 
2 13.018999999999998 
2 13.018999999999998 
3 15.035 
5 15.035 
6 15.035 

Pair Coeffs

1 0.8148173365790176 3.75 
2 0.0831446261815324 4.68 
3 0.8148173365790176 3.75 
4 0.0831446261815324 4.68 
5 0.8148173365790176 3.75 
6 0.8148173365790176 3.75 

Bond Coeffs

1 -1 1.54 
2 -1 1.54 
3 -1 1.54 
4 -1 1.54 
5 -1 1.54 

Atoms

1 1 1 0.0 0.0 0.0 0.0 0 0 0
2 1 2 0.0 1.0624 -1.0996000000000001 0.10389999999999999 0 0 0
2 1 2 0.0 2.4988 -0.5107 0.10370000000000001 0 0 0
3 1 3 0.0 3.561 -1.6105 -9.999999999998899e-05 0 0 0
5 1 5 0.0 2.8063000000000002 0.38669999999999993 1.3056999999999999 0 0 0
6 1 6 0.0 0.7551999999999999 -1.9971 1.3056999999999999 0 0 0

Bonds

1 1 1 2
2 2 2 3
3 3 2 4
4 4 4 5
5 5 4 6
