# FEASST data file 
# p-xylene 
# trappe_parameters_71.txt 
# C1(C)=CC=C(C=C1)C 

8 atoms 
8 bonds 

8 atom types 
8 bond types 

-1.4913 4.2811 xlo xhi 
-1.2079 1.208 ylo yhi 
-0.0005 0.0 zlo zhi 

Masses

1 12.011 
2 13.018999999999998 
7 15.035 
3 13.018999999999998 
4 12.011 
5 13.018999999999998 
8 15.035 
6 13.018999999999998 

Pair Coeffs

1 0.17460371498121804 3.88 
2 0.41988036221673863 3.695 
3 0.41988036221673863 3.695 
4 0.17460371498121804 3.88 
5 0.41988036221673863 3.695 
6 0.41988036221673863 3.695 
7 0.8148173365790176 3.75 
8 0.8148173365790176 3.75 

Bond Coeffs

1 -1 1.40 
2 -1 1.54 
3 -1 1.40 
4 -1 1.40 
5 -1 1.40 
6 -1 1.54 
7 -1 1.40 
8 -1 1.40 

Atoms

1 1 1 0.0 0.0 0.0 0.0 0 0 0
2 1 2 0.0 0.6974 1.208 -0.0002 0 0 0
7 1 7 0.0 4.2811 0.0 -0.0005 0 0 0
3 1 3 0.0 2.0923 1.2079 -0.0001 0 0 0
4 1 4 0.0 2.7898 0.0 0.0 0 0 0
5 1 5 0.0 2.0923 -1.2079 -0.0001 0 0 0
8 1 8 0.0 -1.4913 0.0 -0.0005 0 0 0
6 1 6 0.0 0.6974 -1.2079 -0.0002 0 0 0

Bonds

1 1 1 2
2 2 1 7
3 3 2 3
4 4 3 4
5 5 4 5
6 6 4 8
7 7 5 6
8 8 6 1
