# FEASST data file 
# acetone 
# trappe_parameters_31.txt 
# CC(=O)C 

4 atoms 
3 bonds 

4 atom types 
3 bond types 

-2.5623 0.0 xlo xhi 
-2.0195 0.0 ylo yhi 
0.0 0.0007999999999999999 zlo zhi 

Masses

1 15.035 
2 12.011 
3 15.035 
4 15.999 

Pair Coeffs

1 0.8148173365790176 3.75 
2 0.3325785047261296 3.82 
3 0.8148173365790176 3.75 
4 0.6568425468341059 3.05 

Bond Coeffs

1 -1 1.52 
2 -1 1.52 
3 -1 1.229 

Atoms

1 1 1 0.0 0.0 0.0 0.0 0 0 0
2 1 2 0.424 -1.281 -0.7896000000000001 0.0007999999999999999 0 0 0
3 1 3 0.0 -2.5623 -0.000500000000000056 0.0 0 0 0
4 1 4 -0.424 -1.2807 -2.0195 0.0 0 0 0

Bonds

1 1 1 2
2 2 2 3
3 3 2 4
