# FEASST data file 
# "1,4-dioxane" 
# trappe_parameters_110.txt 
# O1CCOCC1 

6 atoms 
6 bonds 

6 atom types 
6 bond types 

-2.7652 0.0 xlo xhi 
-1.1767999999999998 1.176 ylo yhi 
0.0 0.4865 zlo zhi 

Masses

1 15.999 
2 14.027 
3 14.027 
4 15.999 
5 14.027 
6 14.027 

Pair Coeffs

1 1.2887417058137522 2.390 
2 0.43650928745304507 3.910 
3 0.43650928745304507 3.910 
4 1.2887417058137522 2.390 
5 0.43650928745304507 3.910 
6 0.43650928745304507 3.910 

Bond Coeffs

1 -1 1.4400 
2 -1 1.54 
3 -1 1.4400 
4 -1 1.4400 
5 -1 1.54 
6 -1 1.4400 

Atoms

1 1 1 -0.380 0.0 0.0 0.0 0 0 0
2 1 2 0.190 -0.6595000000000001 1.176 0.4757 0 0 0
3 1 3 0.190 -0.6587000000000001 -1.1764 0.4757 0 0 0
4 1 4 -0.380 -2.7652 -0.0008 0.4865 0 0 0
5 1 5 0.190 -2.1065 1.1756 0.010899999999999993 0 0 0
6 1 6 0.190 -2.1058 -1.1767999999999998 0.010899999999999993 0 0 0

Bonds

1 1 1 2
2 2 2 3
3 3 3 4
4 4 4 5
5 5 5 6
6 6 6 1
