# FEASST data file 
# n-perfluorohexane 
# trappe_parameters_74.txt 
# FC(F)(C(F)(F)C(F)(F)C(F)(F)C(F)(F)F)C(F)(F)F 

6 atoms 
5 bonds 

6 atom types 
5 bond types 

-4.857799999999999 0.0 xlo xhi 
-0.30649999999999994 1.1445 ylo yhi 
-1.3607 0.0 zlo zhi 

Masses

1 69.006209489 
2 50.007806325999994 
3 50.007806325999994 
4 50.007806325999994 
5 50.007806325999994 
6 69.006209489 

Pair Coeffs

1 0.7233582477793319 4.360 
2 0.2286477219992141 4.730 
3 0.2286477219992141 4.730 
4 0.2286477219992141 4.730 
5 0.2286477219992141 4.730 
6 0.7233582477793319 4.360 

Bond Coeffs

1 -1 1.54 
2 -1 1.54 
3 -1 1.54 
4 -1 1.54 
5 -1 1.54 

Atoms

1 1 1 0.000 0.0 0.0 0.0 0 0 0
2 1 2 0.000 -0.9607999999999999 1.1445 -0.2082 0 0 0
3 1 3 0.000 -1.9427999999999999 1.0031 -1.3607 0 0 0
4 1 4 0.000 -2.9154 -0.16719999999999996 -1.3596 0 0 0
5 1 5 0.000 -3.8971999999999998 -0.30649999999999994 -0.20679999999999998 0 0 0
6 1 6 0.000 -4.857799999999999 0.8385 -0.0006999999999999784 0 0 0

Bonds

1 1 1 2
2 2 2 3
3 3 3 4
4 4 4 5
5 5 5 6
