# FEASST data file 
# cyclooctane 
# trappe_parameters_113.txt 
# C1CCCCCCC1 

8 atoms 
8 bonds 

8 atom types 
8 bond types 

-3.4989 0.0 xlo xhi 
-1.5864 1.5840999999999998 ylo yhi 
-0.6935 0.639 zlo zhi 

Masses

1 14.027 
2 14.027 
3 14.027 
4 14.027 
5 14.027 
6 14.027 
7 14.027 
8 14.027 

Pair Coeffs

1 0.42403759352581527 3.890 
2 0.42403759352581527 3.890 
3 0.42403759352581527 3.890 
4 0.42403759352581527 3.890 
5 0.42403759352581527 3.890 
6 0.42403759352581527 3.890 
7 0.42403759352581527 3.890 
8 0.42403759352581527 3.890 

Bond Coeffs

1 -1 1.54 
2 -1 1.54 
3 -1 1.54 
4 -1 1.54 
5 -1 1.54 
6 -1 1.54 
7 -1 1.54 
8 -1 1.54 

Atoms

1 1 1 0.000 0.0 0.0 0.0 0 0 0
2 1 2 0.000 -0.7547999999999999 1.3032 0.272 0 0 0
3 1 3 0.000 -0.7526999999999999 -1.3046 0.2711 0 0 0
4 1 4 0.000 -1.9065999999999999 1.5840999999999998 -0.6934 0 0 0
5 1 5 0.000 -1.9048 -1.5864 -0.6935 0 0 0
6 1 6 0.000 -3.3033 1.2917999999999998 -0.1449 0 0 0
7 1 7 0.000 -3.3014 -1.2964 -0.1439 0 0 0
8 1 8 0.000 -3.4989 -0.0021999999999999997 0.639 0 0 0

Bonds

1 1 1 2
2 2 2 3
3 3 3 4
4 4 4 5
5 5 5 6
6 6 6 7
7 7 7 8
8 8 8 1
