# FEASST data file 
# cis-2-butene 
# trappe_parameters_57.txt 
# C/C=C\C 

4 atoms 
3 bonds 

4 atom types 
3 bond types 

0.0 3.172 xlo xhi 
-1.13 0.16800000000000015 ylo yhi 
-0.027 0.019 zlo zhi 

Masses

1 15.035 
2 13.018999999999998 
3 13.018999999999998 
4 15.035 

Pair Coeffs

1 0.8148173365790176 3.75 
2 0.3907797430532023 3.73 
3 0.3907797430532023 3.73 
4 0.8148173365790176 3.75 

Bond Coeffs

1 -1 1.54 
2 -1 1.33 
3 -1 1.54 

Atoms

1 1 1 0.0 0.0 0.0 0.0 0 0 0
2 1 2 0.0 0.9790000000000001 -1.13 -0.027 0 0 0
3 1 3 0.0 2.319 -1.0579999999999998 -0.013000000000000001 0 0 0
4 1 4 0.0 3.172 0.16800000000000015 0.019 0 0 0

Bonds

1 1 1 2
2 2 2 3
3 3 3 4
