# FEASST data file 
# cyclohexane 
# trappe_parameters_108.txt 
# C1CCCCC1 

6 atoms 
6 bonds 

6 atom types 
6 bond types 

-0.043400000000000105 2.5242 xlo xhi 
-2.2235 0.6911 ylo yhi 
0.0 0.4516 zlo zhi 

Masses

1 14.027 
1 14.027 
2 14.027 
2 14.027 
3 14.027 
4 14.027 

Pair Coeffs

1 0.43650928745304507 3.910 
2 0.43650928745304507 3.910 
3 0.43650928745304507 3.910 
4 0.43650928745304507 3.910 
5 0.43650928745304507 3.910 
6 0.43650928745304507 3.910 

Bond Coeffs

1 -1 1.54 
2 -1 1.54 
3 -1 1.54 
4 -1 1.54 
5 -1 1.54 
6 -1 1.54 

Atoms

1 1 1 0.000 0.0 0.0 0.0 0 0 0
1 1 1 0.000 1.2839 0.6911 0.4516 0 0 0
2 1 2 0.000 1.1968999999999999 -2.2235 0.0 0 0 0
2 1 2 0.000 2.4808 -1.5325 0.4516 0 0 0
3 1 3 0.000 2.5242 -0.07509999999999994 9.999999999998899e-05 0 0 0
4 1 4 0.000 -0.043400000000000105 -1.4571999999999998 0.4516 0 0 0

Bonds

1 1 1 2
2 2 2 3
3 3 3 4
4 4 4 5
5 5 5 6
6 6 6 1
