# FEASST data file 
# acetonitrile 
# trappe_parameters_91.txt 
# CC#N 

3 atoms 
2 bonds 

3 atom types 
2 bond types 

0.0 2.623 xlo xhi 
0.0 0.0040000000000000036 ylo yhi 
0.0 0.0 zlo zhi 

Masses

1 15.035 
2 12.011 
3 14.007 

Pair Coeffs

1 0.8148173365790176 3.750 
2 0.4988677570891944 3.550 
3 0.4988677570891944 2.950 

Bond Coeffs

1 -1 1.54 
2 -1 1.1570 

Atoms

1 1 1 0.269 0.0 0.0 0.0 0 0 0
2 1 2 0.129 1.4619999999999997 0.0019999999999997797 0.0 0 0 0
3 1 3 -0.398 2.623 0.0040000000000000036 0.0 0 0 0

Bonds

1 1 1 2
2 2 2 3
