# FEASST data file 
# "2,5-dimethylhexane" 
# trappe_parameters_24.txt 
# CC(C)CCC(C)C 

8 atoms 
7 bonds 

8 atom types 
7 bond types 

-5.2938 0.0 xlo xhi 
0.0 2.5259 ylo yhi 
-1.4051 0.43739999999999996 zlo zhi 

Masses

1 15.035 
2 13.018999999999998 
2 13.018999999999998 
3 14.027 
7 15.035 
3 14.027 
6 15.035 
8 15.035 

Pair Coeffs

1 0.8148173365790176 3.75 
2 0.0831446261815324 4.68 
3 0.38246528043504907 3.95 
4 0.38246528043504907 3.95 
5 0.0831446261815324 4.68 
6 0.8148173365790176 3.75 
7 0.8148173365790176 3.75 
8 0.8148173365790176 3.75 

Bond Coeffs

1 -1 1.54 
2 -1 1.54 
3 -1 1.54 
4 -1 1.54 
5 -1 1.54 
6 -1 1.54 
7 -1 1.54 

Atoms

1 1 1 0.0 0.0 0.0 0.0 0 0 0
2 1 2 0.0 -0.4047999999999998 1.4761000000000002 -0.014400000000000024 0 0 0
2 1 2 0.0 -4.3285 1.0375 -0.030000000000000027 0 0 0
3 1 3 0.0 -2.8571999999999997 0.8464 -0.44610000000000005 0 0 0
7 1 7 0.0 -4.6849 2.5259 -0.05180000000000001 0 0 0
3 1 3 0.0 -1.871 1.6205 0.43739999999999996 0 0 0
6 1 6 0.0 -0.1623000000000001 2.0646 -1.4051 0 0 0
8 1 8 0.0 -5.2938 0.26180000000000003 -0.9275 0 0 0

Bonds

1 1 1 2
2 2 2 3
3 3 2 7
4 4 3 4
5 5 4 5
6 6 5 6
7 7 5 8
