# FEASST data file 
# n-octane 
# trappe_parameters_6.txt 
# CCCCCCCC 

8 atoms 
7 bonds 

8 atom types 
7 bond types 

0.0 8.8781 xlo xhi 
-0.8226 0.24649999999999994 ylo yhi 
-0.0087 0.06509999999999999 zlo zhi 

Masses

1 15.035 
2 14.027 
2 14.027 
2 14.027 
3 14.027 
3 14.027 
6 14.027 
8 15.035 

Pair Coeffs

1 0.8148173365790176 3.75 
2 0.38246528043504907 3.95 
3 0.38246528043504907 3.95 
4 0.38246528043504907 3.95 
5 0.38246528043504907 3.95 
6 0.38246528043504907 3.95 
7 0.38246528043504907 3.95 
8 0.8148173365790176 3.75 

Bond Coeffs

1 -1 1.54 
2 -1 1.54 
3 -1 1.54 
4 -1 1.54 
5 -1 1.54 
6 -1 1.54 
7 -1 1.54 

Atoms

1 1 1 0.0 0.0 0.0 0.0 0 0 0
2 1 2 0.0 1.2793999999999999 -0.8226 -0.007199999999999998 0 0 0
2 1 2 0.0 3.8345 -0.7096 0.06509999999999999 0 0 0
2 1 2 0.0 2.5178 0.07239999999999996 0.0571 0 0 0
3 1 3 0.0 5.0748999999999995 0.18669999999999998 0.0552 0 0 0
3 1 3 0.0 6.3591 -0.6456 0.0398 0 0 0
6 1 6 0.0 7.5995 0.24649999999999994 -0.0087 0 0 0
8 1 8 0.0 8.8781 -0.5758000000000001 0.0098 0 0 0

Bonds

1 1 1 2
2 2 2 3
3 3 3 4
4 4 4 5
5 5 5 6
6 6 6 7
7 7 7 8
