# FEASST data file 
# "methyl 
# trappe_parameters_40.txt 
# COC(C)(C)C 

6 atoms 
5 bonds 

6 atom types 
5 bond types 

-3.5876 0.0 xlo xhi 
-1.2549 1.262 ylo yhi 
-0.9742000000000001 0.7888 zlo zhi 

Masses

1 15.035 
2 15.999 
3 12.011 
4 15.035 
5 15.035 
6 15.035 

Pair Coeffs

1 0.8148173365790176 3.75 
2 0.4572954439984282 2.80 
3 0.00415723130907662 5.80 
4 0.8148173365790176 3.75 
5 0.8148173365790176 3.75 
6 0.8148173365790176 3.75 

Bond Coeffs

1 -1 1.41 
2 -1 1.41 
3 -1 1.54 
4 -1 1.54 
5 -1 1.54 

Atoms

1 1 1 0.25 0.0 0.0 0.0 0 0 0
2 1 2 -0.500 -1.2034 -0.0004 0.7514 0 0 0
3 1 3 0.25 -2.3478 -0.0004 -0.1028 0 0 0
4 1 4 0.0 -2.3039 -1.2549 -0.9742000000000001 0 0 0
5 1 5 0.0 -2.313 1.262 -0.9630000000000001 0 0 0
6 1 6 0.0 -3.5876 -0.0087 0.7888 0 0 0

Bonds

1 1 1 2
2 2 2 3
3 3 3 4
4 4 3 5
5 5 3 6
