# FEASST data file 
# soman 
# trappe_parameters_129.txt 
# FP(=O)(C)OC(C)C(C)(C)C 

11 atoms 
10 bonds 

11 atom types 
10 bond types 

-5.0737000000000005 0.9169 xlo xhi 
-1.96 1.5678999999999998 ylo yhi 
-1.4287 1.6893 zlo zhi 

Masses

3 15.999 
1 30.973761998 
4 15.035 
5 18.998403163 
2 15.999 
6 13.018999999999998 
8 15.035 
7 12.011 
9 15.035 
10 15.035 
11 15.035 

Pair Coeffs

1 0.7150437851611787 4.000 
2 0.4572954439984282 2.800 
3 0.6568425468341059 3.050 
4 0.8148173365790176 3.750 
5 0.22199615190469152 2.950 
6 0.0831446261815324 4.330 
7 0.00415723130907662 6.400 
8 0.8148173365790176 3.750 
9 0.8148173365790176 3.750 
10 0.8148173365790176 3.750 
11 0.8148173365790176 3.750 

Bond Coeffs

1 -1 1.4580 
2 -1 1.7900 
3 -1 1.5800 
4 -1 1.5800 
5 -1 1.41 
6 -1 1.54 
7 -1 1.54 
8 -1 1.54 
9 -1 1.54 
10 -1 1.54 

Atoms

3 1 3 -0.770 0.9169 0.7148 -0.9516 0 0 0
1 1 1 1.400 0.0 0.0 0.0 0 0 0
4 1 4 -0.100 0.1875 0.5338 1.6893 0 0 0
5 1 5 -0.340 0.17320000000000002 -1.5546000000000002 -0.15889999999999999 0 0 0
2 1 2 -0.630 -1.5598 0.22599999999999998 -0.3437 0 0 0
6 1 6 0.430 -2.5513000000000003 -0.4596 0.4248 0 0 0
8 1 8 -0.080 -2.3162000000000003 -1.96 0.265 0 0 0
7 1 7 0.540 -3.9792 0.0416 0.0528 0 0 0
9 1 9 -0.150 -4.0788 1.5678999999999998 0.23249999999999998 0 0 0
10 1 10 -0.150 -5.0737000000000005 -0.6283000000000001 0.9049 0 0 0
11 1 11 -0.150 -4.261 -0.2889 -1.4287 0 0 0

Bonds

1 1 3 1
2 2 4 1
3 3 5 1
4 4 1 2
5 5 2 6
6 6 6 8
7 7 6 7
8 8 7 9
9 9 7 10
10 10 7 11
