# FEASST data file 
# "diethyl 
# trappe_parameters_14.txt 
# CCOCC 

5 atoms 
4 bonds 

5 atom types 
4 bond types 

-4.7747 0.0 xlo xhi 
-0.00040000000000001146 0.9066 ylo yhi 
0.0 0.0 zlo zhi 

Masses

1 15.035 
2 14.027 
3 15.999 
4 14.027 
5 15.035 

Pair Coeffs

1 0.8148173365790176 3.75 
2 0.38246528043504907 3.95 
3 0.4572954439984282 2.80 
4 0.38246528043504907 3.95 
5 0.8148173365790176 3.75 

Bond Coeffs

1 -1 1.54 
2 -1 1.41 
3 -1 1.41 
4 -1 1.54 

Atoms

1 1 1 0.0 0.0 0.0 0.0 0 0 0
2 1 2 0.25 -1.2126000000000001 0.9062 0.0 0 0 0
3 1 3 -0.500 -2.3865000000000003 0.1078 0.0 0 0 0
4 1 4 0.25 -3.5627000000000004 0.9066 0.0 0 0 0
5 1 5 0.0 -4.7747 -0.00040000000000001146 0.0 0 0 0

Bonds

1 1 1 2
2 2 2 3
3 3 3 4
4 4 4 5
