# FEASST data file 
# octanal 
# trappe_parameters_47.txt 
# O=CCCCCCCC 

9 atoms 
8 bonds 

9 atom types 
8 bond types 

0.0 9.0477 xlo xhi 
-1.1405 0.7792 ylo yhi 
-0.033299999999999996 0.0588 zlo zhi 

Masses

1 15.035 
2 14.027 
2 14.027 
2 14.027 
3 14.027 
4 14.027 
6 14.027 
8 13.018999999999998 
9 15.999 

Pair Coeffs

1 0.8148173365790176 3.75 
2 0.38246528043504907 3.95 
3 0.38246528043504907 3.95 
4 0.38246528043504907 3.95 
5 0.38246528043504907 3.95 
6 0.38246528043504907 3.95 
7 0.38246528043504907 3.95 
8 0.448980981380275 3.52 
9 0.6568425468341059 3.05 

Bond Coeffs

1 -1 1.54 
2 -1 1.54 
3 -1 1.54 
4 -1 1.54 
5 -1 1.54 
6 -1 1.54 
7 -1 1.52 
8 -1 1.217 

Atoms

1 1 1 0.0 0.0 0.0 0.0 0 0 0
2 1 2 0.0 1.3334000000000006 -0.7303999999999999 -0.0077 0 0 0
2 1 2 0.0 5.0215000000000005 0.49130000000000007 0.0007000000000000001 0 0 0
2 1 2 0.0 6.3882 -0.1958 0.0588 0 0 0
3 1 3 0.0 3.8480000000000003 -0.491 -0.0063999999999999994 0 0 0
4 1 4 0.0 2.5080000000000005 0.2475 -0.033299999999999996 0 0 0
6 1 6 0.0 7.5602 0.7792 -0.0075 0 0 0
8 1 8 0.525 8.897 0.07660000000000002 -0.0251 0 0 0
9 1 9 -0.482 9.0477 -1.1405 -0.02 0 0 0

Bonds

1 1 1 2
2 2 2 3
3 3 3 4
4 4 4 5
5 5 5 6
6 6 6 7
7 7 7 8
8 8 8 9
