# FEASST data file 
# ethylbenzene 
# trappe_parameters_66.txt 
# C1=CC=C(C=C1)CC 

8 atoms 
8 bonds 

8 atom types 
8 bond types 

-2.742 2.297 xlo xhi 
-1.2081 1.208 ylo yhi 
-1.0051 0.2752 zlo zhi 

Masses

1 12.011 
2 13.018999999999998 
7 14.027 
2 13.018999999999998 
3 13.018999999999998 
3 13.018999999999998 
4 13.018999999999998 
8 15.035 

Pair Coeffs

1 0.17460371498121804 3.88 
2 0.41988036221673863 3.695 
3 0.41988036221673863 3.695 
4 0.41988036221673863 3.695 
5 0.41988036221673863 3.695 
6 0.41988036221673863 3.695 
7 0.38246528043504907 3.95 
8 0.8148173365790176 3.75 

Bond Coeffs

1 -1 1.40 
2 -1 1.54 
3 -1 1.40 
4 -1 1.40 
5 -1 1.40 
6 -1 1.40 
7 -1 1.40 
8 -1 1.54 

Atoms

1 1 1 0.0 0.0 0.0 0.0 0 0 0
2 1 2 0.0 -0.6856 1.208 -0.12860000000000002 0 0 0
7 1 7 0.0 1.4657999999999998 0.0 0.2752 0 0 0
2 1 2 0.0 -2.0566 1.2078 -0.38580000000000003 0 0 0
3 1 3 0.0 -0.6854 -1.208 -0.12850000000000003 0 0 0
3 1 3 0.0 -2.0564 -1.2081 -0.38570000000000004 0 0 0
4 1 4 0.0 -2.742 -0.0002 -0.5144 0 0 0
8 1 8 0.0 2.297 -0.0002 -1.0051 0 0 0

Bonds

1 1 1 2
2 2 1 7
3 3 2 3
4 4 3 4
5 5 4 5
6 6 5 6
7 7 6 1
8 8 7 8
