# FEASST data file 
# "1,2-ethanediol" 
# trappe_parameters_62.txt 
# C(CO)O 

6 atoms 
5 bonds 

6 atom types 
5 bond types 

-0.7476 2.0894 xlo xhi 
-1.9342000000000001 0.0 ylo yhi 
-1.4153 0.0 zlo zhi 

Masses

1 14.027 
2 14.027 
3 15.999 
5 15.999 
4 1.008 
6 1.008 

Pair Coeffs

1 0.38246528043504907 3.95 
2 0.38246528043504907 3.95 
3 0.7732450234882514 3.02 
4 0.0 0.0 
5 0.7732450234882514 3.02 
6 0.0 0.0 

Bond Coeffs

1 -1 1.54 
2 -1 1.43 
3 -1 1.43 
4 -1 0.945 
5 -1 0.945 

Atoms

1 1 1 0.265 0.0 0.0 0.0 0 0 0
2 1 2 0.265 1.3958 0.0 -0.5932999999999999 0 0 0
3 1 3 -0.700 -0.6936 -1.1592 -0.4455 0 0 0
5 1 5 -0.700 2.0894 -1.1592 -0.14790000000000003 0 0 0
4 1 4 0.435 -0.7476 -1.1136 -1.4153 0 0 0
6 1 6 0.435 1.5752 -1.9342000000000001 -0.43220000000000003 0 0 0

Bonds

1 1 1 2
2 2 1 3
3 3 2 5
4 4 3 4
5 5 5 6
