# FEASST data file 
# n-dodecane 
# trappe_parameters_7.txt 
# CCCCCCCCCCCC 

12 atoms 
11 bonds 

12 atom types 
11 bond types 

0.0 13.973500000000001 xlo xhi 
-0.8452 0.18080000000000002 ylo yhi 
0.0 0.3038 zlo zhi 

Masses

1 15.035 
2 14.027 
3 14.027 
4 14.027 
5 14.027 
6 14.027 
7 14.027 
8 14.027 
9 14.027 
10 14.027 
11 14.027 
12 15.035 

Pair Coeffs

1 0.8148173365790176 3.75 
2 0.38246528043504907 3.95 
3 0.38246528043504907 3.95 
4 0.38246528043504907 3.95 
5 0.38246528043504907 3.95 
6 0.38246528043504907 3.95 
7 0.38246528043504907 3.95 
8 0.38246528043504907 3.95 
9 0.38246528043504907 3.95 
10 0.38246528043504907 3.95 
11 0.38246528043504907 3.95 
12 0.8148173365790176 3.75 

Bond Coeffs

1 -1 1.54 
2 -1 1.54 
3 -1 1.54 
4 -1 1.54 
5 -1 1.54 
6 -1 1.54 
7 -1 1.54 
8 -1 1.54 
9 -1 1.54 
10 -1 1.54 
11 -1 1.54 

Atoms

1 1 1 0.0 0.0 0.0 0.0 0 0 0
2 1 2 0.0 1.2621000000000002 -0.8452 0.07970000000000001 0 0 0
3 1 3 0.0 6.3715 -0.6976 0.3038 0 0 0
4 1 4 0.0 3.8152000000000004 -0.7749999999999999 0.2228 0 0 0
5 1 5 0.0 8.8962 -0.6722999999999999 0.24020000000000002 0 0 0
6 1 6 0.0 7.6257 0.18080000000000002 0.2866 0 0 0
7 1 7 0.0 5.0666 0.10520000000000002 0.2787 0 0 0
8 1 8 0.0 10.1843 0.15500000000000003 0.1946 0 0 0
9 1 9 0.0 11.455100000000002 -0.6972 0.1741 0 0 0
10 1 10 0.0 12.7049 0.17620000000000002 0.05550000000000001 0 0 0
11 1 11 0.0 2.5104000000000006 0.028000000000000025 0.2101 0 0 0
12 1 12 0.0 13.973500000000001 -0.6620999999999999 0.06720000000000001 0 0 0

Bonds

1 1 1 2
2 2 2 3
3 3 3 4
4 4 4 5
5 5 5 6
6 6 6 7
7 7 7 8
8 8 8 9
9 9 9 10
10 10 10 11
11 11 11 12
