# FEASST data file 
# "1,3-butadiene" 
# trappe_parameters_94.txt 
# C=CC=C 

4 atoms 
3 bonds 

4 atom types 
3 bond types 

-3.6628999999999996 0.0 xlo xhi 
-0.5283 0.26639999999999997 ylo yhi 
0.0 0.0 zlo zhi 

Masses

1 14.027 
2 13.018999999999998 
3 13.018999999999998 
4 14.027 

Pair Coeffs

1 0.7067293225430255 3.675 
2 0.43235205614396854 3.710 
3 0.43235205614396854 3.710 
4 0.7067293225430255 3.675 

Bond Coeffs

1 -1 1.33 
2 -1 1.54 
3 -1 1.33 

Atoms

1 1 1 0.0 0.0 0.0 0.0 0 0 0
2 1 2 0.000 -1.2289999999999999 -0.5283 0.0 0 0 0
3 1 3 0.000 -2.4335999999999998 0.26639999999999997 0.0 0 0 0
4 1 4 0.0 -3.6628999999999996 -0.2613 0.0 0 0 0

Bonds

1 1 1 2
2 2 2 3
3 3 3 4
