# FEASST data file 
# "dimethyl 
# trappe_parameters_86.txt 
# CSSC 

4 atoms 
3 bonds 

4 atom types 
3 bond types 

-1.0027 2.7114 xlo xhi 
-9.999999999998899e-05 1.2524 ylo yhi 
-1.1448 0.0 zlo zhi 

Masses

1 32.06 
2 32.06 
4 15.035 
3 15.035 

Pair Coeffs

1 1.3718863319952848 3.720 
2 1.3718863319952848 3.720 
3 0.8148173365790176 3.750 
4 0.8148173365790176 3.750 

Bond Coeffs

1 -1 2.0400 
2 -1 1.8200 
3 -1 1.8200 

Atoms

1 1 1 -0.177 0.0 0.0 0.0 0 0 0
2 1 2 -0.177 1.7085 -9.999999999998899e-05 -1.1448 0 0 0
4 1 4 0.177 2.7114 1.2524 -0.30910000000000004 0 0 0
3 1 3 0.177 -1.0027 1.2524 -0.8357 0 0 0

Bonds

1 1 1 2
2 2 1 4
3 3 2 3
