# FEASST data file 
# "3,4-dimethylhexane" 
# trappe_parameters_25.txt 
# CCC(C)C(C)CC 

8 atoms 
7 bonds 

8 atom types 
7 bond types 

0.0 4.7048000000000005 xlo xhi 
-2.5395000000000003 0.0 ylo yhi 
-1.0259 2.0609 zlo zhi 

Masses

1 15.035 
2 14.027 
3 13.018999999999998 
4 13.018999999999998 
7 15.035 
8 15.035 
5 14.027 
6 15.035 

Pair Coeffs

1 0.8148173365790176 3.75 
2 0.38246528043504907 3.95 
3 0.0831446261815324 4.68 
4 0.0831446261815324 4.68 
5 0.38246528043504907 3.95 
6 0.8148173365790176 3.75 
7 0.8148173365790176 3.75 
8 0.8148173365790176 3.75 

Bond Coeffs

1 -1 1.54 
2 -1 1.54 
3 -1 1.54 
4 -1 1.54 
5 -1 1.54 
6 -1 1.54 
7 -1 1.54 

Atoms

1 1 1 0.0 0.0 0.0 0.0 0 0 0
2 1 2 0.0 0.3789 -1.2369 0.8019000000000001 0 0 0
3 1 3 0.0 2.8204000000000002 -1.3268 -0.10370000000000001 0 0 0
4 1 4 0.0 1.8843 -1.3291000000000002 1.1432 0 0 0
7 1 7 0.0 2.5982000000000003 -2.5337 -1.0259 0 0 0
8 1 8 0.0 2.106 -2.5395000000000003 2.0609 0 0 0
5 1 5 0.0 4.3257 -1.2359 0.23780000000000007 0 0 0
6 1 6 0.0 4.7048000000000005 -0.0020999999999999908 1.0443 0 0 0

Bonds

1 1 1 2
2 2 2 3
3 3 3 4
4 4 3 7
5 5 4 5
6 6 4 8
7 7 5 6
