# FEASST data file 
# naphthalene 
# trappe_parameters_52.txt 
# C1(C2)=C(C=CC=2)C=CC=C1 

10 atoms 
11 bonds 

10 atom types 
11 bond types 

-3.6577 1.2077 xlo xhi 
0.0 2.7888 ylo yhi 
-0.0002 0.0 zlo zhi 

Masses

1 13.018999999999998 
2 13.018999999999998 
3 13.018999999999998 
4 13.018999999999998 
5 12.011 
6 13.018999999999998 
7 13.018999999999998 
8 13.018999999999998 
9 13.018999999999998 
10 12.011 

Pair Coeffs

1 0.41988036221673863 3.695 
2 0.41988036221673863 3.695 
3 0.41988036221673863 3.695 
4 0.41988036221673863 3.695 
5 0.2494338785445972 3.70 
6 0.41988036221673863 3.695 
7 0.41988036221673863 3.695 
8 0.41988036221673863 3.695 
9 0.41988036221673863 3.695 
10 0.2494338785445972 3.70 

Bond Coeffs

1 -1 1.40 
2 -1 1.40 
3 -1 1.40 
4 -1 1.40 
5 -1 1.40 
6 -1 1.40 
7 -1 1.40 
8 -1 1.40 
9 -1 1.40 
10 -1 1.40 
11 -1 1.40 

Atoms

1 1 1 0.0 0.0 0.0 0.0 0 0 0
2 1 2 0.0 1.2077 0.6986000000000001 -0.0001 0 0 0
3 1 3 0.0 0.0 2.7888 -0.0001 0 0 0
4 1 4 0.0 -2.45 9.999999999998899e-05 -0.0001 0 0 0
5 1 5 0.0 -1.225 0.6868000000000001 -0.0001 0 0 0
6 1 6 0.0 -2.45 2.7887000000000004 -0.0001 0 0 0
7 1 7 0.0 -3.6577 2.0902000000000003 -0.0001 0 0 0
8 1 8 0.0 1.2077 2.0903 -0.0002 0 0 0
9 1 9 0.0 -3.6577 0.6986000000000001 -0.0002 0 0 0
10 1 10 0.0 -1.225 2.1020000000000003 0.0 0 0 0

Bonds

1 1 1 2
2 2 2 3
3 3 3 4
4 4 4 5
5 5 5 6
6 6 6 7
7 7 7 8
8 8 8 9
9 9 9 10
10 10 10 1
11 11 10 5
