# FEASST data file 
# "methyl 
# trappe_parameters_102.txt 
# O=C(OC)C(C)=C 

7 atoms 
6 bonds 

7 atom types 
6 bond types 

-4.623 0.0 xlo xhi 
-2.3948 0.7385 ylo yhi 
0.0 0.0012000000000000001 zlo zhi 

Masses

1 14.027 
2 12.011 
3 12.011 
5 15.035 
4 15.999 
6 15.999 
7 15.035 

Pair Coeffs

1 0.7067293225430255 3.675 
2 0.18291817759937126 3.850 
3 0.3325785047261296 3.820 
4 0.4572954439984282 2.800 
5 0.8148173365790176 3.75 
6 0.6568425468341059 3.050 
7 0.8148173365790176 3.75 

Bond Coeffs

1 -1 1.33 
2 -1 1.5200 
3 -1 1.54 
4 -1 1.3440 
5 -1 1.2000 
6 -1 1.41 

Atoms

1 1 1 0.0 0.0 0.0 0.0 0 0 0
2 1 2 0.000 -0.9704000000000002 -0.9256 0.0007 0 0 0
3 1 3 0.400 -2.3785000000000003 -0.4398 0.0012000000000000001 0 0 0
5 1 5 0.0 -0.6774000000000002 -2.3948 0.0009 0 0 0
4 1 4 -0.250 -3.2276000000000002 -1.5032999999999999 0.0008 0 0 0
6 1 6 -0.400 -2.7056 0.7385 0.0011 0 0 0
7 1 7 0.25 -4.623 -1.1836 0.00010000000000000005 0 0 0

Bonds

1 1 1 2
2 2 2 3
3 3 2 5
4 4 3 4
5 5 3 6
6 6 4 7
