# FEASST data file 
# propane 
# trappe_parameters_3.txt 
# CCC 

3 atoms 
2 bonds 

3 atom types 
2 bond types 

-2.5142 0.0 xlo xhi 
-0.8533999999999999 0.0 ylo yhi 
0.0 0.0 zlo zhi 

Masses

1 15.035 
2 14.027 
3 15.035 

Pair Coeffs

1 0.8148173365790176 3.75 
2 0.38246528043504907 3.95 
3 0.8148173365790176 3.75 

Bond Coeffs

1 -1 1.54 
2 -1 1.54 

Atoms

1 1 1 0.0 0.0 0.0 0.0 0 0 0
2 1 2 0.0 -1.2571 -0.8533999999999999 0.0 0 0 0
3 1 3 0.0 -2.5142 -9.999999999998899e-05 0.0 0 0 0

Bonds

1 1 1 2
2 2 2 3
