# FEASST data file 
# ethene 
# trappe_parameters_50.txt 
# C=C 

2 atoms 
1 bonds 

2 atom types 
1 bond types 

0.0 1.3344 xlo xhi 
0.0 0.0 ylo yhi 
0.0 0.0 zlo zhi 

Masses

1 14.027 
1 14.027 

Pair Coeffs

1 0.7067293225430255 3.675 
2 0.7067293225430255 3.675 

Bond Coeffs

1 -1 1.33 

Atoms

1 1 1 0.0 0.0 0.0 0.0 0 0 0
1 1 1 0.0 1.3344 0.0 0.0 0 0 0

Bonds

1 1 1 2
