# FEASST data file 
# isopropylbenzene 
# trappe_parameters_68.txt 
# C1C=C(C=CC=1)C(C)C 

9 atoms 
9 bonds 

9 atom types 
9 bond types 

-2.7626 2.1694 xlo xhi 
-1.391 1.0801999999999998 ylo yhi 
-1.1974 0.6562 zlo zhi 

Masses

1 12.011 
2 13.018999999999998 
7 13.018999999999998 
3 13.018999999999998 
4 13.018999999999998 
5 13.018999999999998 
6 13.018999999999998 
8 15.035 
9 15.035 

Pair Coeffs

1 0.17460371498121804 3.88 
2 0.41988036221673863 3.695 
3 0.41988036221673863 3.695 
4 0.41988036221673863 3.695 
5 0.41988036221673863 3.695 
6 0.41988036221673863 3.695 
7 0.0831446261815324 4.68 
8 0.8148173365790176 3.75 
9 0.8148173365790176 3.75 

Bond Coeffs

1 -1 1.40 
2 -1 1.54 
3 -1 1.40 
4 -1 1.40 
5 -1 1.40 
6 -1 1.40 
7 -1 1.40 
8 -1 1.54 
9 -1 1.54 

Atoms

1 1 1 0.0 0.0 0.0 0.0 0 0 0
2 1 2 0.0 -0.8469 1.0801999999999998 0.2486 0 0 0
7 1 7 0.0 1.4769 0.16619999999999996 0.12490000000000001 0 0 0
3 1 3 0.0 -2.2282 0.9246999999999999 0.13190000000000002 0 0 0
4 1 4 0.0 -0.5344 -1.2355 -0.36519999999999997 0 0 0
5 1 5 0.0 -1.9157 -1.391 -0.4818 0 0 0
6 1 6 0.0 -2.7626 -0.31100000000000005 -0.2333 0 0 0
8 1 8 0.0 2.1339 0.6051 -1.1974 0 0 0
9 1 9 0.0 2.1694 -1.1031 0.6562 0 0 0

Bonds

1 1 1 2
2 2 1 7
3 3 2 3
4 4 3 4
5 5 4 5
6 6 5 6
7 7 6 1
8 8 7 8
9 9 7 9
