# FEASST data file 
# 2-octanone 
# trappe_parameters_43.txt 
# CC(=O)CCCCCC 

9 atoms 
8 bonds 

9 atom types 
8 bond types 

-8.8649 0.0 xlo xhi 
-0.017000000000000015 2.0058 ylo yhi 
-0.0944 0.012 zlo zhi 

Masses

1 15.035 
2 12.011 
3 14.027 
9 15.999 
4 14.027 
5 14.027 
6 14.027 
7 14.027 
8 15.035 

Pair Coeffs

1 0.8148173365790176 3.75 
2 0.3325785047261296 3.82 
3 0.38246528043504907 3.95 
4 0.38246528043504907 3.95 
5 0.38246528043504907 3.95 
6 0.38246528043504907 3.95 
7 0.38246528043504907 3.95 
8 0.8148173365790176 3.75 
9 0.6568425468341059 3.05 

Bond Coeffs

1 -1 1.52 
2 -1 1.52 
3 -1 1.229 
4 -1 1.54 
5 -1 1.54 
6 -1 1.54 
7 -1 1.54 
8 -1 1.54 

Atoms

1 1 1 0.0 0.0 0.0 0.0 0 0 0
2 1 2 0.424 -1.2916000000000003 0.7746999999999999 -0.0159 0 0 0
3 1 3 0.0 -2.5838 -0.017000000000000015 -0.032600000000000004 0 0 0
9 1 9 -0.424 -1.2975000000000003 2.0058 -0.00040000000000000105 0 0 0
4 1 4 0.0 -5.124600000000001 0.060799999999999965 -0.043300000000000005 0 0 0
5 1 5 0.0 -6.348800000000001 0.9782 -0.0779 0 0 0
6 1 6 0.0 -7.647 0.1764 0.012 0 0 0
7 1 7 0.0 -3.8246 0.8683 -0.0944 0 0 0
8 1 8 0.0 -8.8649 1.0866 0.011199999999999998 0 0 0

Bonds

1 1 1 2
2 2 2 3
3 3 2 9
4 4 3 4
5 5 4 5
6 6 5 6
7 7 6 7
8 8 7 8
