# FEASST data file 
# "n-butyl 
# trappe_parameters_104.txt 
# O=C(OCCCC)C(C)=C 

10 atoms 
9 bonds 

10 atom types 
9 bond types 

0.0 8.45 xlo xhi 
-2.0303 1.6009 ylo yhi 
-0.0318 0.015499999999999998 zlo zhi 

Masses

1 14.027 
2 12.011 
2 12.011 
5 15.035 
4 15.999 
6 15.999 
7 14.027 
7 14.027 
7 14.027 
10 15.035 

Pair Coeffs

1 0.7067293225430255 3.675 
2 0.18291817759937126 3.850 
3 0.3325785047261296 3.820 
4 0.4572954439984282 2.800 
5 0.8148173365790176 3.75 
6 0.6568425468341059 3.050 
7 0.38246528043504907 3.95 
8 0.38246528043504907 3.95 
9 0.38246528043504907 3.95 
10 0.8148173365790176 3.75 

Bond Coeffs

1 -1 1.33 
2 -1 1.5200 
3 -1 1.54 
4 -1 1.3440 
5 -1 1.2000 
6 -1 1.41 
7 -1 1.54 
8 -1 1.54 
9 -1 1.54 

Atoms

1 1 1 0.0 0.0 0.0 0.0 0 0 0
2 1 2 0.000 1.2241 -0.5478000000000001 -0.008900000000000002 0 0 0
2 1 2 0.000 2.3886 0.38089999999999996 -0.012100000000000001 0 0 0
5 1 5 0.0 1.4391999999999996 -2.0303 -0.015600000000000001 0 0 0
4 1 4 -0.250 3.5534 -0.3316 -0.0201 0 0 0
6 1 6 -0.400 2.3027999999999995 1.6009 -0.0071 0 0 0
7 1 7 0.25 4.752599999999999 0.4307 -0.0228 0 0 0
7 1 7 0.25 5.9403 -0.5211 -0.0318 0 0 0
7 1 7 0.25 7.2669 0.23319999999999996 -0.0191 0 0 0
10 1 10 0.0 8.45 -0.7209000000000001 0.015499999999999998 0 0 0

Bonds

1 1 1 2
2 2 2 3
3 3 2 5
4 4 3 4
5 5 3 6
6 6 4 7
7 7 7 8
8 8 8 9
9 9 9 10
