# FEASST data file 
# 2-butanethiol 
# trappe_parameters_80.txt 
# SC(C)CC 

6 atoms 
5 bonds 

6 atom types 
5 bond types 

-0.11230000000000007 3.7699999999999996 xlo xhi 
-2.7717 0.0 ylo yhi 
-0.2183 0.7093 zlo zhi 

Masses

1 15.035 
2 13.018999999999998 
3 14.027 
5 32.06 
4 15.035 
6 1.008 

Pair Coeffs

1 0.8148173365790176 3.75 
2 0.0831446261815324 4.680 
3 0.38246528043504907 3.95 
4 0.8148173365790176 3.75 
5 1.9289553274115518 3.620 
6 0.0 0.000 

Bond Coeffs

1 -1 1.54 
2 -1 1.54 
3 -1 1.8200 
4 -1 1.54 
5 -1 1.34 

Atoms

1 1 1 0.0 0.0 0.0 0.0 0 0 0
2 1 2 0.171 1.2247999999999999 -0.8141 0.4106 0 0 0
3 1 3 0.0 2.5007 -0.2351000000000001 -0.2183 0 0 0
5 1 5 -0.377 0.9568999999999999 -2.5573 -0.07150000000000001 0 0 0
4 1 4 0.0 3.7699999999999996 -0.9929 0.1518 0 0 0
6 1 6 0.206 -0.11230000000000007 -2.7717 0.7093 0 0 0

Bonds

1 1 1 2
2 2 2 3
3 3 2 5
4 4 3 4
5 5 5 6
