# FEASST data file 
# "n-butyl 
# trappe_parameters_98.txt 
# O=C(OCCCC)C=C 

9 atoms 
8 bonds 

9 atom types 
8 bond types 

0.0 8.464400000000001 xlo xhi 
-1.8803 0.3587 ylo yhi 
-0.0167 0.030899999999999997 zlo zhi 

Masses

1 14.027 
2 13.018999999999998 
3 12.011 
4 15.999 
5 15.999 
6 14.027 
7 14.027 
8 14.027 
9 15.035 

Pair Coeffs

1 0.7067293225430255 3.675 
2 0.43235205614396854 3.710 
3 0.3325785047261296 3.820 
4 0.4572954439984282 2.800 
5 0.6568425468341059 3.050 
6 0.38246528043504907 3.95 
7 0.38246528043504907 3.95 
8 0.38246528043504907 3.95 
9 0.8148173365790176 3.75 

Bond Coeffs

1 -1 1.33 
2 -1 1.5200 
3 -1 1.3440 
4 -1 1.2000 
5 -1 1.41 
6 -1 1.54 
7 -1 1.54 
8 -1 1.54 

Atoms

1 1 1 0.0 0.0 0.0 0.0 0 0 0
2 1 2 0.000 1.2869000000000002 0.3587 0.0091 0 0 0
3 1 3 0.400 2.3431 -0.6746000000000001 0.0101 0 0 0
4 1 4 -0.250 3.5526 -0.042300000000000004 0.0195 0 0 0
5 1 5 -0.400 2.152 -1.8803 0.0020999999999999994 0 0 0
6 1 6 0.25 4.694 -0.8885000000000001 0.0199 0 0 0
7 1 7 0.0 5.947 -0.02410000000000001 0.030899999999999997 0 0 0
8 1 8 0.0 7.216200000000001 -0.8713 0.015899999999999997 0 0 0
9 1 9 0.0 8.464400000000001 -0.004200000000000037 -0.0167 0 0 0

Bonds

1 1 1 2
2 2 2 3
3 3 3 4
4 4 3 5
5 5 4 6
6 6 6 7
7 7 7 8
8 8 8 9
