# FEASST data file 
# oxane 
# trappe_parameters_109.txt 
# C1COCCC1 

6 atoms 
6 bonds 

6 atom types 
6 bond types 

0.0 2.8377 xlo xhi 
-1.2524000000000002 1.2547 ylo yhi 
0.0 0.49150000000000005 zlo zhi 

Masses

1 15.999 
2 14.027 
2 14.027 
2 14.027 
3 14.027 
4 14.027 

Pair Coeffs

1 1.2887417058137522 2.390 
2 0.43650928745304507 3.910 
3 0.43650928745304507 3.910 
4 0.43650928745304507 3.910 
5 0.43650928745304507 3.910 
6 0.43650928745304507 3.910 

Bond Coeffs

1 -1 1.4400 
2 -1 1.54 
3 -1 1.54 
4 -1 1.54 
5 -1 1.54 
6 -1 1.4400 

Atoms

1 1 1 -0.440 0.0 0.0 0.0 0 0 0
2 1 2 0.170 0.6265 1.1850999999999998 0.491 0 0 0
2 1 2 0.170 2.8377 0.0014 0.4646 0 0 0
2 1 2 0.170 2.0797 1.2547 0.0398 0 0 0
3 1 3 0.050 2.0808 -1.2524000000000002 0.03940000000000002 0 0 0
4 1 4 0.000 0.6277999999999999 -1.1841000000000002 0.49150000000000005 0 0 0

Bonds

1 1 1 2
2 2 2 3
3 3 3 4
4 4 4 5
5 5 5 6
6 6 6 1
