# FEASST data file 
# cyclododecane 
# trappe_parameters_114.txt 
# C1CCCCCCCCCCC1 

12 atoms 
12 bonds 

12 atom types 
12 bond types 

0.0 5.144399999999999 xlo xhi 
-0.9858999999999998 3.2138 ylo yhi 
-0.8958999999999999 0.5487 zlo zhi 

Masses

1 14.027 
1 14.027 
2 14.027 
2 14.027 
3 14.027 
3 14.027 
4 14.027 
5 14.027 
6 14.027 
7 14.027 
10 14.027 
11 14.027 

Pair Coeffs

1 0.42403759352581527 3.890 
2 0.42403759352581527 3.890 
3 0.42403759352581527 3.890 
4 0.42403759352581527 3.890 
5 0.42403759352581527 3.890 
6 0.42403759352581527 3.890 
7 0.42403759352581527 3.890 
8 0.42403759352581527 3.890 
9 0.42403759352581527 3.890 
10 0.42403759352581527 3.890 
11 0.42403759352581527 3.890 
12 0.42403759352581527 3.890 

Bond Coeffs

1 -1 1.54 
2 -1 1.54 
3 -1 1.54 
4 -1 1.54 
5 -1 1.54 
6 -1 1.54 
7 -1 1.54 
8 -1 1.54 
9 -1 1.54 
10 -1 1.54 
11 -1 1.54 
12 -1 1.54 

Atoms

1 1 1 0.000 0.0 0.0 0.0 0 0 0
1 1 1 0.000 0.1835 1.4262000000000001 0.5487 0 0 0
2 1 2 0.000 4.38 3.2138 -0.1804 0 0 0
2 1 2 0.000 2.9009 3.1336000000000004 0.23620000000000002 0 0 0
3 1 3 0.000 5.0253 -0.6136999999999999 -0.022900000000000004 0 0 0
3 1 3 0.000 5.144399999999999 0.8411 0.4613 0 0 0
4 1 4 0.000 3.7039 -0.9858999999999998 -0.7144999999999999 0 0 0
5 1 5 0.000 5.0103 1.893 -0.6481 0 0 0
6 1 6 0.000 0.49849999999999994 2.5241 -0.4785 0 0 0
7 1 7 0.000 1.9665 2.6897 -0.8958999999999999 0 0 0
10 1 10 0.000 2.4591 -0.7067999999999999 0.13319999999999999 0 0 0
11 1 11 0.000 1.1887999999999999 -0.6435 -0.7190000000000001 0 0 0

Bonds

1 1 1 2
2 2 2 3
3 3 3 4
4 4 4 5
5 5 5 6
6 6 6 7
7 7 7 8
8 8 8 9
9 9 9 10
10 10 10 11
11 11 11 12
12 12 12 1
