# FEASST data file 
# "ethyl 
# trappe_parameters_97.txt 
# O=C(OCC)C=C 

7 atoms 
6 bonds 

7 atom types 
6 bond types 

0.0 5.9407 xlo xhi 
-0.3987 1.8123 ylo yhi 
-0.0014 0.0 zlo zhi 

Masses

1 14.027 
2 13.018999999999998 
3 12.011 
4 15.999 
5 15.999 
6 14.027 
7 15.035 

Pair Coeffs

1 0.7067293225430255 3.675 
2 0.43235205614396854 3.710 
3 0.3325785047261296 3.820 
4 0.4572954439984282 2.800 
5 0.6568425468341059 3.050 
6 0.38246528043504907 3.95 
7 0.8148173365790176 3.75 

Bond Coeffs

1 -1 1.33 
2 -1 1.5200 
3 -1 1.3440 
4 -1 1.2000 
5 -1 1.41 
6 -1 1.54 

Atoms

1 1 1 0.0 0.0 0.0 0.0 0 0 0
2 1 2 0.000 1.2752000000000001 -0.3987 -0.0006 0 0 0
3 1 3 0.400 2.363 0.6011 -0.0014 0 0 0
4 1 4 -0.250 3.5436 -0.07450000000000001 -0.0013 0 0 0
5 1 5 -0.400 2.2095000000000002 1.8123 -0.0004999999999999999 0 0 0
6 1 6 0.25 4.7195 0.7418 -9.999999999999994e-05 0 0 0
7 1 7 0.0 5.9407 -0.15289999999999998 -0.0003 0 0 0

Bonds

1 1 1 2
2 2 2 3
3 3 3 4
4 4 3 5
5 5 4 6
6 6 6 7
