# FEASST data file 
# n-perfluorodecane 
# trappe_parameters_75.txt 
# FC(F)(C(F)(F)C(F)(F)C(F)(F)C(F)(F)C(F)(F)C(F)(F)C(F)(F)C(F)(F)F)C(F)(F)F 

10 atoms 
9 bonds 

10 atom types 
9 bond types 

-11.072999999999999 0.0 xlo xhi 
-1.9960000000000004 0.0 ylo yhi 
-0.09 0.10799999999999998 zlo zhi 

Masses

1 69.006209489 
2 50.007806325999994 
3 50.007806325999994 
4 50.007806325999994 
5 50.007806325999994 
6 50.007806325999994 
7 50.007806325999994 
8 50.007806325999994 
9 50.007806325999994 
10 69.006209489 

Pair Coeffs

1 0.7233582477793319 4.360 
2 0.2286477219992141 4.730 
3 0.2286477219992141 4.730 
4 0.2286477219992141 4.730 
5 0.2286477219992141 4.730 
6 0.2286477219992141 4.730 
7 0.2286477219992141 4.730 
8 0.2286477219992141 4.730 
9 0.2286477219992141 4.730 
10 0.7233582477793319 4.360 

Bond Coeffs

1 -1 1.54 
2 -1 1.54 
3 -1 1.54 
4 -1 1.54 
5 -1 1.54 
6 -1 1.54 
7 -1 1.54 
8 -1 1.54 
9 -1 1.54 

Atoms

1 1 1 0.000 0.0 0.0 0.0 0 0 0
2 1 2 0.000 -1.126 -1.0150000000000006 0.016 0 0 0
3 1 3 0.000 -6.109 -1.5360000000000005 0.054 0 0 0
4 1 4 0.000 -4.945 -0.5600000000000005 0.10799999999999998 0 0 0
5 1 5 0.000 -7.437 -0.7980000000000005 0.08199999999999999 0 0 0
6 1 6 0.000 -3.6100000000000003 -1.2850000000000006 0.061000000000000006 0 0 0
7 1 7 0.000 -8.607999999999999 -1.7620000000000005 -0.0030000000000000027 0 0 0
8 1 8 0.000 -9.921999999999999 -1.0140000000000002 0.003999999999999997 0 0 0
9 1 9 0.000 -2.455 -0.29800000000000004 0.07 0 0 0
10 1 10 0.000 -11.072999999999999 -1.9960000000000004 -0.09 0 0 0

Bonds

1 1 1 2
2 2 2 3
3 3 3 4
4 4 4 5
5 5 5 6
6 6 6 7
7 7 7 8
8 8 8 9
9 9 9 10
