# FEASST data file 
# toluene7 
# trappe_parameters_65.txt 
# CC1=CC=CC=C1 

7 atoms 
7 bonds 

7 atom types 
7 bond types 

-1.4916 2.7897 xlo xhi 
-1.208 1.208 ylo yhi 
-0.00030000000000000003 0.0 zlo zhi 

Masses

1 12.011 
2 13.018999999999998 
7 15.035 
2 13.018999999999998 
2 13.018999999999998 
3 13.018999999999998 
4 13.018999999999998 

Pair Coeffs

1 0.17460371498121804 3.88 
2 0.41988036221673863 3.695 
3 0.41988036221673863 3.695 
4 0.41988036221673863 3.695 
5 0.41988036221673863 3.695 
6 0.41988036221673863 3.695 
7 0.8148173365790176 3.75 

Bond Coeffs

1 -1 1.40 
2 -1 1.54 
3 -1 1.40 
4 -1 1.40 
5 -1 1.40 
6 -1 1.40 
7 -1 1.40 

Atoms

1 1 1 0.0 0.0 0.0 0.0 0 0 0
2 1 2 0.0 0.6975 1.2079 0.0 0 0 0
7 1 7 0.0 -1.4916 0.0001 -0.00030000000000000003 0 0 0
2 1 2 0.0 2.0922 -1.208 -0.0001 0 0 0
2 1 2 0.0 2.7897 0.0 -0.0002 0 0 0
3 1 3 0.0 2.0924 1.208 -0.0002 0 0 0
4 1 4 0.0 0.6973 -1.2079 -0.0001 0 0 0

Bonds

1 1 1 2
2 2 1 7
3 3 2 3
4 4 3 4
5 5 4 5
6 6 5 6
7 7 6 1
