# FEASST data file 
# "dimethyl 
# trappe_parameters_83.txt 
# CSC 

3 atoms 
2 bonds 

3 atom types 
2 bond types 

-1.3707 1.3707 xlo xhi 
0.0 1.1796 ylo yhi 
0.0 0.0 zlo zhi 

Masses

1 32.06 
2 15.035 
3 15.035 

Pair Coeffs

1 1.6545780610124947 3.580 
2 0.8148173365790176 3.750 
3 0.8148173365790176 3.750 

Bond Coeffs

1 -1 1.8200 
2 -1 1.8200 

Atoms

1 1 1 -0.300 0.0 0.0 0.0 0 0 0
2 1 2 0.150 -1.3707 1.1796 0.0 0 0 0
3 1 3 0.150 1.3707 1.1796 0.0 0 0 0

Bonds

1 1 1 2
2 2 1 3
