# FEASST data file 
# 2-methylpropan-2-ol 
# trappe_parameters_45.txt 
# CC(O)(C)C 

6 atoms 
5 bonds 

6 atom types 
5 bond types 

0.0 2.5163 xlo xhi 
-0.05449999999999999 2.1429 ylo yhi 
-0.11379999999999996 2.1363 zlo zhi 

Masses

1 15.035 
2 12.011 
3 15.035 
4 15.999 
6 15.035 
5 1.008 

Pair Coeffs

1 0.8148173365790176 3.75 
2 0.00415723130907662 5.80 
3 0.8148173365790176 3.75 
4 0.7732450234882514 3.02 
5 0.0 0.0 
6 0.8148173365790176 3.75 

Bond Coeffs

1 -1 1.54 
2 -1 1.54 
3 -1 1.43 
4 -1 1.54 
5 -1 0.945 

Atoms

1 1 1 0.0 0.0 0.0 0.0 0 0 0
2 1 2 0.265 1.2739 0.7201000000000001 0.44 0 0 0
3 1 3 0.0 2.5163 -0.05449999999999999 0.0027000000000000357 0 0 0
4 1 4 -0.700 1.2741 0.8129000000000001 1.8651 0 0 0
6 1 6 0.0 1.3056 2.1429 -0.11379999999999996 0 0 0
5 1 5 0.435 0.47620000000000007 1.2984 2.1363 0 0 0

Bonds

1 1 1 2
2 2 2 3
3 3 2 4
4 4 2 6
5 5 4 5
