# FEASST data file 
# n-decane 
# trappe_parameters_199.txt 
# CCCCCCCCCC 

10 atoms 
9 bonds 

10 atom types 
9 bond types 

0.0 11.4208 xlo xhi 
-0.1981 0.8433999999999999 ylo yhi 
0.0 0.18419999999999997 zlo zhi 

Masses

1 15.035 
2 14.027 
3 14.027 
4 14.027 
5 14.027 
6 14.027 
7 14.027 
8 14.027 
9 14.027 
10 15.035 

Pair Coeffs

1 0.8148173365790176 3.75 
2 0.38246528043504907 3.95 
3 0.38246528043504907 3.95 
4 0.38246528043504907 3.95 
5 0.38246528043504907 3.95 
6 0.38246528043504907 3.95 
7 0.38246528043504907 3.95 
8 0.38246528043504907 3.95 
9 0.38246528043504907 3.95 
10 0.8148173365790176 3.75 

Bond Coeffs

1 -1 1.54 
2 -1 1.54 
3 -1 1.54 
4 -1 1.54 
5 -1 1.54 
6 -1 1.54 
7 -1 1.54 
8 -1 1.54 
9 -1 1.54 

Atoms

1 1 1 0.0 0.0 0.0 0.0 0 0 0
2 1 2 0.0 1.266 0.8433999999999999 0.012199999999999989 0 0 0
3 1 3 0.0 3.8195999999999994 0.7754000000000001 0.1505 0 0 0
4 1 4 0.0 6.3767 0.7008000000000001 0.1531 0 0 0
5 1 5 0.0 5.0729 -0.10320000000000001 0.18419999999999997 0 0 0
6 1 6 0.0 7.629899999999999 -0.1765 0.11099999999999999 0 0 0
7 1 7 0.0 2.5166 -0.030100000000000016 0.1212 0 0 0
8 1 8 0.0 8.9016 0.6747000000000001 0.09409999999999999 0 0 0
9 1 9 0.0 10.1539 -0.1981 0.013499999999999998 0 0 0
10 1 10 0.0 11.4208 0.6424000000000001 0.03019999999999999 0 0 0

Bonds

1 1 1 2
2 2 2 3
3 3 3 4
4 4 4 5
5 5 5 6
6 6 6 7
7 7 7 8
8 8 8 9
9 9 9 10
