# FEASST data file 
# isoprene 
# trappe_parameters_95.txt 
# C=C(C)C=C 

5 atoms 
4 bonds 

5 atom types 
4 bond types 

0.0 3.5703 xlo xhi 
-2.2987 0.0 ylo yhi 
-0.0001 0.0 zlo zhi 

Masses

1 14.027 
2 12.011 
3 13.018999999999998 
5 15.035 
4 14.027 

Pair Coeffs

1 0.7067293225430255 3.675 
2 0.18291817759937126 3.850 
3 0.43235205614396854 3.710 
4 0.7067293225430255 3.675 
5 0.8148173365790176 3.75 

Bond Coeffs

1 -1 1.33 
2 -1 1.54 
3 -1 1.54 
4 -1 1.33 

Atoms

1 1 1 0.0 0.0 0.0 0.0 0 0 0
2 1 2 0.000 1.0764 -0.8039000000000001 -0.0001 0 0 0
3 1 3 0.000 2.4151 -0.2318 0.0 0 0 0
5 1 5 0.0 0.9127 -2.2987 0.0 0 0 0
4 1 4 0.0 3.5703 -0.9086000000000001 0.0 0 0 0

Bonds

1 1 1 2
2 2 2 3
3 3 2 5
4 4 3 4
