# FEASST data file 
# "1,3-dioxolane" 
# trappe_parameters_107.txt 
# O1COCC1 

5 atoms 
5 bonds 

5 atom types 
5 bond types 

0.0 2.3325 xlo xhi 
-0.8181999999999999 1.3096 ylo yhi 
-0.08249999999999999 0.3477 zlo zhi 

Masses

1 15.999 
2 14.027 
3 15.999 
4 14.027 
5 14.027 

Pair Coeffs

1 1.5797478974491157 2.200 
2 0.4681042454020274 3.880 
3 1.5797478974491157 2.200 
4 0.4681042454020274 3.880 
5 0.4681042454020274 3.880 

Bond Coeffs

1 -1 1.4400 
2 -1 1.4400 
3 -1 1.4400 
4 -1 1.54 
5 -1 1.4400 

Atoms

1 1 1 -0.425 0.0 0.0 0.0 0 0 0
2 1 2 0.360 1.1663000000000001 -0.8181999999999999 0.13240000000000002 0 0 0
3 1 3 -0.425 2.3325 -0.00040000000000001146 0.2659 0 0 0
4 1 4 0.245 0.4459000000000001 1.3096 0.3477 0 0 0
5 1 5 0.245 1.8874 1.3091 -0.08249999999999999 0 0 0

Bonds

1 1 1 2
2 2 2 3
3 3 3 4
4 4 4 5
5 5 5 1
