# FEASST data file 
# "1,3,5-trioxane" 
# trappe_parameters_112.txt 
# C1OCOCO1 

6 atoms 
6 bonds 

6 atom types 
6 bond types 

-0.0894 2.4360999999999997 xlo xhi 
-1.9691 1.3435 ylo yhi 
0.0 0.4426 zlo zhi 

Masses

1 15.999 
2 14.027 
3 15.999 
4 14.027 
5 15.999 

Pair Coeffs

1 1.2887417058137522 2.390 
2 0.43650928745304507 3.910 
3 1.2887417058137522 2.390 
4 0.43650928745304507 3.910 
5 1.2887417058137522 2.390 
6 0.43650928745304507 3.910 

Bond Coeffs

1 -1 1.4400 
2 -1 1.4400 
3 -1 1.4400 
4 -1 1.4400 
5 -1 1.4400 
6 -1 1.4400 

Atoms

1 1 1 -0.360 0.0 0.0 0.0 0 0 0
2 1 2 0.360 0.10909999999999997 -1.3532 0.4426 0 0 0
3 1 3 -0.360 1.3187 -1.9691 0.0 0 0 0
4 1 4 0.360 2.4360999999999997 -1.1981 0.4425 0 0 0
5 1 5 -0.360 2.3646000000000003 0.15739999999999998 0.0 0 0 0

Bonds

1 1 1 2
2 2 2 3
3 3 3 4
4 4 4 5
5 5 5 6
6 6 6 1
