# FEASST data file 
# "diisopropyl 
# trappe_parameters_41.txt 
# CC(C)OC(C)C 

7 atoms 
6 bonds 

7 atom types 
6 bond types 

0.0 4.416399999999999 xlo xhi 
-0.35929999999999995 2.2352 ylo yhi 
-1.0419 0.06910000000000005 zlo zhi 

Masses

1 15.035 
2 13.018999999999998 
2 13.018999999999998 
3 15.999 
6 15.035 
5 15.035 
7 15.035 

Pair Coeffs

1 0.8148173365790176 3.75 
2 0.0831446261815324 4.33 
3 0.4572954439984282 2.80 
4 0.0831446261815324 4.33 
5 0.8148173365790176 3.75 
6 0.8148173365790176 3.75 
7 0.8148173365790176 3.75 

Bond Coeffs

1 -1 1.54 
2 -1 1.41 
3 -1 1.54 
4 -1 1.41 
5 -1 1.54 
6 -1 1.54 

Atoms

1 1 1 0.0 0.0 0.0 0.0 0 0 0
2 1 2 0.25 1.0369 0.8381 -0.7323999999999999 0 0 0
2 1 2 0.25 3.3785 1.0378 -0.7318 0 0 0
3 1 3 -0.500 2.2100999999999997 0.9379 0.06910000000000005 0 0 0
6 1 6 0.0 3.894 -0.35929999999999995 -1.0419 0 0 0
5 1 5 0.0 4.416399999999999 1.8756 -0.0008000000000000229 0 0 0
7 1 7 0.0 0.5208999999999999 2.2352 -1.0412 0 0 0

Bonds

1 1 1 2
2 2 2 3
3 3 2 6
4 4 3 4
5 5 4 5
6 6 4 7
