# FEASST data file 
# "ethylmethyl 
# trappe_parameters_85.txt 
# CSCC 

4 atoms 
3 bonds 

4 atom types 
3 bond types 

-2.6550000000000002 1.4627999999999999 xlo xhi 
-1.2879 0.0 ylo yhi 
0.0 0.0 zlo zhi 

Masses

1 32.06 
2 14.027 
4 15.035 
3 15.035 

Pair Coeffs

1 1.6545780610124947 3.580 
2 0.38246528043504907 3.950 
3 0.8148173365790176 3.75 
4 0.8148173365790176 3.750 

Bond Coeffs

1 -1 1.8200 
2 -1 1.8200 
3 -1 1.54 

Atoms

1 1 1 -0.300 0.0 0.0 0.0 0 0 0
2 1 2 0.150 -1.2694 -1.2879 0.0 0 0 0
4 1 4 0.150 1.4627999999999999 -1.0633 0.0 0 0 0
3 1 3 0.0 -2.6550000000000002 -0.6704 0.0 0 0 0

Bonds

1 1 1 2
2 2 1 4
3 3 2 3
