# FEASST data file 
# "diethyl 
# trappe_parameters_84.txt 
# CCSCC 

5 atoms 
4 bonds 

5 atom types 
4 bond types 

-2.7047000000000003 2.6994 xlo xhi 
-1.1834 0.0 ylo yhi 
0.0 0.0 zlo zhi 

Masses

1 32.06 
2 14.027 
4 14.027 
3 15.035 
5 15.035 

Pair Coeffs

1 1.6545780610124947 3.580 
2 0.38246528043504907 3.950 
3 0.8148173365790176 3.75 
4 0.38246528043504907 3.950 
5 0.8148173365790176 3.75 

Bond Coeffs

1 -1 1.8200 
2 -1 1.8200 
3 -1 1.54 
4 -1 1.54 

Atoms

1 1 1 -0.300 0.0 0.0 0.0 0 0 0
2 1 2 0.150 -1.3741999999999999 -1.1834 0.0 0 0 0
4 1 4 0.150 1.3675 -1.1823000000000001 0.0 0 0 0
3 1 3 0.0 2.6994 -0.4564 0.0 0 0 0
5 1 5 0.0 -2.7047000000000003 -0.45499999999999996 0.0 0 0 0

Bonds

1 1 1 2
2 2 1 4
3 3 2 3
4 4 4 5
