# FEASST data file 
# "2,2-dimethylhexane" 
# trappe_parameters_26.txt 
# CC(C)(C)CCCC 

8 atoms 
7 bonds 

8 atom types 
7 bond types 

-0.9869999999999999 5.2784 xlo xhi 
-1.7233 0.3500000000000001 ylo yhi 
0.0 2.4729 zlo zhi 

Masses

1 15.035 
2 12.011 
3 14.027 
7 15.035 
8 15.035 
3 14.027 
4 14.027 
6 15.035 

Pair Coeffs

1 0.8148173365790176 3.75 
2 0.00415723130907662 6.4 
3 0.38246528043504907 3.95 
4 0.38246528043504907 3.95 
5 0.38246528043504907 3.95 
6 0.8148173365790176 3.75 
7 0.8148173365790176 3.75 
8 0.8148173365790176 3.75 

Bond Coeffs

1 -1 1.54 
2 -1 1.54 
3 -1 1.54 
4 -1 1.54 
5 -1 1.54 
6 -1 1.54 
7 -1 1.54 

Atoms

1 1 1 0.0 0.0 0.0 0.0 0 0 0
2 1 2 0.0 0.15569999999999995 -0.7063999999999999 1.3611 0 0 0
3 1 3 0.0 1.5399 -1.4082 1.3854 0 0 0
7 1 7 0.0 0.047499999999999876 0.3500000000000001 2.4729 0 0 0
8 1 8 0.0 -0.9869999999999999 -1.7233 1.5158 0 0 0
3 1 3 0.0 2.7592 -0.4819 1.2962 0 0 0
4 1 4 0.0 4.0623 -1.2789 1.3946 0 0 0
6 1 6 0.0 5.2784 -0.36729999999999996 1.3453 0 0 0

Bonds

1 1 1 2
2 2 2 3
3 3 2 7
4 4 2 8
5 5 3 4
6 6 4 5
7 7 5 6
