# FEASST data file 
# 2-butanol 
# trappe_parameters_61.txt 
# CCC(C)O 

6 atoms 
5 bonds 

6 atom types 
5 bond types 

0.0 3.8177 xlo xhi 
-0.017000000000000015 2.4788 ylo yhi 
-0.20220000000000002 0.3846 zlo zhi 

Masses

1 15.035 
2 13.018999999999998 
3 14.027 
5 15.999 
4 15.035 
6 1.008 

Pair Coeffs

1 0.8148173365790176 3.75 
2 0.0831446261815324 4.33 
3 0.38246528043504907 3.95 
4 0.8148173365790176 3.75 
5 0.7732450234882514 3.02 
6 0.0 0.0 

Bond Coeffs

1 -1 1.54 
2 -1 1.54 
3 -1 1.43 
4 -1 1.54 
5 -1 0.945 

Atoms

1 1 1 0.0 0.0 0.0 0.0 0 0 0
2 1 2 0.265 1.295 0.7027 0.3846 0 0 0
3 1 3 0.0 2.5111 -0.017000000000000015 -0.20220000000000002 0 0 0
5 1 5 -0.700 1.2586 2.0383 -0.11070000000000002 0 0 0
4 1 4 0.0 3.8177 0.689 0.1354 0 0 0
6 1 6 0.435 0.48960000000000004 2.4788 0.2894 0 0 0

Bonds

1 1 1 2
2 2 2 3
3 3 2 5
4 4 3 4
5 5 5 6
