# FEASST data file 
# 2-pentanone 
# trappe_parameters_44.txt 
# CC(=O)CCC 

6 atoms 
5 bonds 

6 atom types 
5 bond types 

-5.0483 0.0 xlo xhi 
-2.1514 0.0 ylo yhi 
-0.0347 0.0 zlo zhi 

Masses

1 15.035 
2 12.011 
3 14.027 
6 15.999 
4 14.027 
5 15.035 

Pair Coeffs

1 0.8148173365790176 3.75 
2 0.3325785047261296 3.82 
3 0.38246528043504907 3.95 
4 0.38246528043504907 3.95 
5 0.8148173365790176 3.75 
6 0.6568425468341059 3.05 

Bond Coeffs

1 -1 1.52 
2 -1 1.52 
3 -1 1.229 
4 -1 1.54 
5 -1 1.54 

Atoms

1 1 1 0.0 0.0 0.0 0.0 0 0 0
2 1 2 0.424 -1.1847 -0.9309000000000001 -0.015 0 0 0
3 1 3 0.0 -2.5526 -0.27160000000000006 -0.0347 0 0 0
6 1 6 -0.424 -1.0317 -2.1514 -0.0113 0 0 0
4 1 4 0.0 -3.6917 -1.2867 -0.013399999999999999 0 0 0
5 1 5 0.0 -5.0483 -0.6016 0.0 0 0 0

Bonds

1 1 1 2
2 2 2 3
3 3 2 6
4 4 3 4
5 5 4 5
