# FEASST data file 
# ethanol 
# trappe_parameters_19.txt 
# OCC 

4 atoms 
3 bonds 

4 atom types 
3 bond types 

-2.3887 0.0 xlo xhi 
-0.8332999999999999 0.5696000000000001 ylo yhi 
0.0 0.8099 zlo zhi 

Masses

1 15.035 
2 14.027 
3 15.999 
4 1.008 

Pair Coeffs

1 0.8148173365790176 3.75 
2 0.38246528043504907 3.95 
3 0.7732450234882514 3.02 
4 0.0 0.0 

Bond Coeffs

1 -1 1.54 
2 -1 1.43 
3 -1 0.945 

Atoms

1 1 1 0.0 0.0 0.0 0.0 0 0 0
2 1 2 0.265 -1.2638 -0.8332999999999999 0.0 0 0 0
3 1 3 -0.700 -2.3887 0.03290000000000004 0.0 0 0 0
4 1 4 0.435 -2.3466 0.5696000000000001 0.8099 0 0 0

Bonds

1 1 1 2
2 2 2 3
3 3 3 4
