# FEASST data file 
# "1,5-hexadiene" 
# trappe_parameters_60.txt 
# C=CCCC=C 

6 atoms 
5 bonds 

6 atom types 
5 bond types 

-4.3384 0.0 xlo xhi 
-2.0517 0.031200000000000006 ylo yhi 
-0.1995 0.7048000000000001 zlo zhi 

Masses

1 14.027 
2 13.018999999999998 
3 14.027 
4 14.027 
5 13.018999999999998 
6 14.027 

Pair Coeffs

1 0.7067293225430255 3.675 
2 0.3907797430532023 3.73 
3 0.38246528043504907 3.95 
4 0.38246528043504907 3.95 
5 0.3907797430532023 3.73 
6 0.7067293225430255 3.675 

Bond Coeffs

1 -1 1.33 
2 -1 1.54 
3 -1 1.54 
4 -1 1.54 
5 -1 1.33 

Atoms

1 1 1 0.0 0.0 0.0 0.0 0 0 0
2 1 2 0.0 -0.73 -0.8715999999999999 0.7048000000000001 0 0 0
3 1 3 0.0 -1.443 -2.049 0.1038 0 0 0
4 1 4 0.0 -2.9438 -2.0517 0.41290000000000004 0 0 0
5 1 5 0.0 -3.6631 -0.8842 -0.1995 0 0 0
6 1 6 0.0 -4.3384 0.031200000000000006 0.5044 0 0 0

Bonds

1 1 1 2
2 2 2 3
3 3 3 4
4 4 4 5
5 5 5 6
