# FEASST data file 
# methanethiol 
# trappe_parameters_76.txt 
# CS 

3 atoms 
2 bonds 

3 atom types 
2 bond types 

0.0 1.9569999999999999 xlo xhi 
0.0 0.4417 ylo yhi 
0.0 1.257 zlo zhi 

Masses

1 15.035 
2 32.06 
3 1.008 

Pair Coeffs

1 0.8148173365790176 3.750 
2 1.9289553274115518 3.620 
3 0.0 0.000 

Bond Coeffs

1 -1 1.8200 
2 -1 1.34 

Atoms

1 1 1 0.171 0.0 0.0 0.0 0 0 0
2 1 2 -0.377 1.804 0.0 0.0 0 0 0
3 1 3 0.206 1.9569999999999999 0.4417 1.257 0 0 0

Bonds

1 1 1 2
2 2 2 3
