# FEASST data file 
# cyclopentane 
# trappe_parameters_105.txt 
# C1CCCC1 

5 atoms 
5 bonds 

5 atom types 
5 bond types 

-1.502 0.8376999999999999 xlo xhi 
-2.4242 0.0 ylo yhi 
-0.3658 0.11370000000000002 zlo zhi 

Masses

1 14.027 
1 14.027 
2 14.027 
3 14.027 
4 14.027 

Pair Coeffs

1 0.4681042454020274 3.880 
2 0.4681042454020274 3.880 
3 0.4681042454020274 3.880 
4 0.4681042454020274 3.880 
5 0.4681042454020274 3.880 

Bond Coeffs

1 -1 1.54 
2 -1 1.54 
3 -1 1.54 
4 -1 1.54 
5 -1 1.54 

Atoms

1 1 1 0.000 0.0 0.0 0.0 0 0 0
1 1 1 0.000 0.8376999999999999 -1.2729 -0.11789999999999999 0 0 0
2 1 2 0.000 -0.1517 -2.4242 -0.2845 0 0 0
3 1 3 0.000 -1.4185 -0.41100000000000003 -0.3658 0 0 0
4 1 4 0.000 -1.502 -1.8495 0.11370000000000002 0 0 0

Bonds

1 1 1 2
2 2 2 3
3 3 3 4
4 4 4 5
5 5 5 1
