# FEASST data file 
# propylbenzene 
# trappe_parameters_67.txt 
# C1C=C(C=CC=1)CCC 

9 atoms 
9 bonds 

9 atom types 
9 bond types 

-2.7152000000000003 3.8213 xlo xhi 
-1.205 1.2173999999999998 ylo yhi 
-0.9073 0.34209999999999996 zlo zhi 

Masses

1 12.011 
2 13.018999999999998 
7 14.027 
3 13.018999999999998 
4 13.018999999999998 
5 13.018999999999998 
6 13.018999999999998 
8 14.027 
9 15.035 

Pair Coeffs

1 0.17460371498121804 3.88 
2 0.41988036221673863 3.695 
3 0.41988036221673863 3.695 
4 0.41988036221673863 3.695 
5 0.41988036221673863 3.695 
6 0.41988036221673863 3.695 
7 0.38246528043504907 3.95 
8 0.38246528043504907 3.95 
9 0.8148173365790176 3.75 

Bond Coeffs

1 -1 1.40 
2 -1 1.54 
3 -1 1.40 
4 -1 1.40 
5 -1 1.40 
6 -1 1.40 
7 -1 1.40 
8 -1 1.54 
9 -1 1.54 

Atoms

1 1 1 0.0 0.0 0.0 0.0 0 0 0
2 1 2 0.0 -0.6839 -1.205 -0.1622 0 0 0
7 1 7 0.0 1.4517 -0.0065 0.34209999999999996 0 0 0
3 1 3 0.0 -2.0415 -1.1986 -0.48250000000000004 0 0 0
4 1 4 0.0 -0.6738 1.2110999999999998 -0.1582 0 0 0
5 1 5 0.0 -2.0314 1.2173999999999998 -0.47850000000000004 0 0 0
6 1 6 0.0 -2.7152000000000003 0.0125 -0.6407 0 0 0
8 1 8 0.0 2.3434999999999997 -0.0079 -0.9073 0 0 0
9 1 9 0.0 3.8213 0.0202 -0.5511 0 0 0

Bonds

1 1 1 2
2 2 1 7
3 3 2 3
4 4 3 4
5 5 4 5
6 6 5 6
7 7 6 1
8 8 7 8
9 9 8 9
