# FEASST data file 
# 2-methylpropene 
# trappe_parameters_56.txt 
# CC(C)=C 

4 atoms 
3 bonds 

4 atom types 
3 bond types 

0.0 2.5462 xlo xhi 
-2.1339 0.0008999999999999009 ylo yhi 
-0.0001 0.0001 zlo zhi 

Masses

1 15.035 
2 12.011 
3 14.027 
4 15.035 

Pair Coeffs

1 0.8148173365790176 3.75 
2 0.1662892523630648 3.85 
3 0.7067293225430255 3.675 
4 0.8148173365790176 3.75 

Bond Coeffs

1 -1 1.54 
2 -1 1.33 
3 -1 1.54 

Atoms

1 1 1 0.0 0.0 0.0 0.0 0 0 0
2 1 2 0.0 1.2734 -0.7926000000000001 0.0001 0 0 0
3 1 3 0.0 1.274 -2.1339 -0.0001 0 0 0
4 1 4 0.0 2.5462 0.0008999999999999009 0.0 0 0 0

Bonds

1 1 1 2
2 2 2 3
3 3 2 4
