# FEASST data file 
# "n-octyl 
# trappe_parameters_99.txt 
# O=C(C=C)OCCCCCCCC 

13 atoms 
12 bonds 

13 atom types 
12 bond types 

0.0 13.5443 xlo xhi 
-1.9114999999999998 0.3400000000000001 ylo yhi 
-0.0669 0.1253 zlo zhi 

Masses

1 14.027 
2 13.018999999999998 
3 12.011 
4 15.999 
5 15.999 
6 14.027 
6 14.027 
6 14.027 
7 14.027 
8 14.027 
9 14.027 
10 14.027 
13 15.035 

Pair Coeffs

1 0.7067293225430255 3.675 
2 0.43235205614396854 3.710 
3 0.3325785047261296 3.820 
4 0.4572954439984282 2.800 
5 0.6568425468341059 3.050 
6 0.38246528043504907 3.95 
7 0.38246528043504907 3.95 
8 0.38246528043504907 3.95 
9 0.38246528043504907 3.95 
10 0.38246528043504907 3.95 
11 0.38246528043504907 3.95 
12 0.38246528043504907 3.95 
13 0.8148173365790176 3.75 

Bond Coeffs

1 -1 1.33 
2 -1 1.5200 
3 -1 1.3440 
4 -1 1.2000 
5 -1 1.41 
6 -1 1.54 
7 -1 1.54 
8 -1 1.54 
9 -1 1.54 
10 -1 1.54 
11 -1 1.54 
12 -1 1.54 

Atoms

1 1 1 0.0 0.0 0.0 0.0 0 0 0
2 1 2 0.000 1.2919999999999998 0.3400000000000001 0.017499999999999998 0 0 0
3 1 3 0.400 2.3329000000000004 -0.7086999999999999 0.0258 0 0 0
4 1 4 -0.250 3.5515000000000003 -0.09419999999999995 0.0431 0 0 0
5 1 5 -0.400 2.1242 -1.9114999999999998 0.0168 0 0 0
6 1 6 0.25 4.6803 -0.957 0.0513 0 0 0
6 1 6 0.25 8.469100000000001 -0.12009999999999993 0.1253 0 0 0
6 1 6 0.25 9.7629 -0.9390999999999999 0.0983 0 0 0
7 1 7 0.0 7.2039 -0.9786999999999999 0.0641 0 0 0
8 1 8 0.0 11.028 -0.07849999999999996 0.0852 0 0 0
9 1 9 0.0 12.285 -0.9442999999999999 -0.014900000000000004 0 0 0
10 1 10 0.0 5.9459 -0.11139999999999994 0.07050000000000001 0 0 0
13 1 13 0.0 13.5443 -0.09409999999999996 -0.0669 0 0 0

Bonds

1 1 1 2
2 2 2 3
3 3 3 4
4 4 3 5
5 5 4 6
6 6 6 7
7 7 7 8
8 8 8 9
9 9 9 10
10 10 10 11
11 11 11 12
12 12 12 13
