# FEASST data file 
# "dimethyl 
# trappe_parameters_12.txt 
# COC 

3 atoms 
2 bonds 

3 atom types 
2 bond types 

-2.35 0.0 xlo xhi 
0.0 0.7995000000000001 ylo yhi 
0.0 0.0 zlo zhi 

Masses

1 15.035 
2 15.999 
3 15.035 

Pair Coeffs

1 0.8148173365790176 3.75 
2 0.4572954439984282 2.80 
3 0.8148173365790176 3.75 

Bond Coeffs

1 -1 1.41 
2 -1 1.41 

Atoms

1 1 1 0.25 0.0 0.0 0.0 0 0 0
2 1 2 -0.500 -1.175 0.7995000000000001 0.0 0 0 0
3 1 3 0.25 -2.35 0.0 0.0 0 0 0

Bonds

1 1 1 2
2 2 2 3
