# FEASST data file 
# "ethyl 
# trappe_parameters_103.txt 
# O=C(OCC)C(C)=C 

8 atoms 
7 bonds 

8 atom types 
7 bond types 

-5.876200000000001 0.0 xlo xhi 
-2.1393 1.4107 ylo yhi 
0.0 0.0015 zlo zhi 

Masses

1 14.027 
2 12.011 
2 12.011 
5 15.035 
4 15.999 
6 15.999 
7 14.027 
8 15.035 

Pair Coeffs

1 0.7067293225430255 3.675 
2 0.18291817759937126 3.850 
3 0.3325785047261296 3.820 
4 0.4572954439984282 2.800 
5 0.8148173365790176 3.75 
6 0.6568425468341059 3.050 
7 0.38246528043504907 3.95 
8 0.8148173365790176 3.75 

Bond Coeffs

1 -1 1.33 
2 -1 1.5200 
3 -1 1.54 
4 -1 1.3440 
5 -1 1.2000 
6 -1 1.41 
7 -1 1.54 

Atoms

1 1 1 0.0 0.0 0.0 0.0 0 0 0
2 1 2 0.000 -1.1761000000000001 -0.6443 0.0009 0 0 0
2 1 2 0.000 -2.4114000000000004 0.188 0.0015 0 0 0
5 1 5 0.0 -1.2716000000000003 -2.1393 0.0013 0 0 0
4 1 4 -0.250 -3.5059000000000005 -0.6208 0.0013 0 0 0
6 1 6 -0.400 -2.4239 1.4107 0.0012 0 0 0
7 1 7 0.25 -4.7717 0.04770000000000002 0.0006000000000000001 0 0 0
8 1 8 0.0 -5.876200000000001 -0.9875 0.00039999999999999996 0 0 0

Bonds

1 1 1 2
2 2 2 3
3 3 2 5
4 4 3 4
5 5 3 6
6 6 4 7
7 7 7 8
