# FEASST data file 
# octan-1-ol 
# trappe_parameters_35.txt 
# OCCCCCCCC 

10 atoms 
9 bonds 

10 atom types 
9 bond types 

0.0 9.993400000000001 xlo xhi 
-0.5602 0.8688 ylo yhi 
-0.7765 0.1534 zlo zhi 

Masses

1 15.035 
2 14.027 
3 14.027 
4 14.027 
5 14.027 
6 14.027 
7 14.027 
8 14.027 
9 15.999 
10 1.008 

Pair Coeffs

1 0.8148173365790176 3.75 
2 0.38246528043504907 3.95 
3 0.38246528043504907 3.95 
4 0.38246528043504907 3.95 
5 0.38246528043504907 3.95 
6 0.38246528043504907 3.95 
7 0.38246528043504907 3.95 
8 0.38246528043504907 3.95 
9 0.7732450234882514 3.02 
10 0.0 0.0 

Bond Coeffs

1 -1 1.54 
2 -1 1.54 
3 -1 1.54 
4 -1 1.54 
5 -1 1.54 
6 -1 1.54 
7 -1 1.54 
8 -1 1.43 
9 -1 0.945 

Atoms

1 1 1 0.0 0.0 0.0 0.0 0 0 0
2 1 2 0.0 1.2618 0.8471 0.044000000000000004 0 0 0
3 1 3 0.0 5.0765 0.01319999999999999 0.1534 0 0 0
4 1 4 0.0 6.3434 0.8688 0.084 0 0 0
5 1 5 0.0 3.7846 0.8353999999999999 0.1379 0 0 0
6 1 6 0.0 2.5173 -0.02200000000000002 0.1328 0 0 0
7 1 7 0.0 7.5992 -0.0016999999999999793 0.0791 0 0 0
8 1 8 0.265 8.8667 0.8409 0.051800000000000006 0 0 0
9 1 9 -0.700 9.993400000000001 -0.02460000000000001 0.0333 0 0 0
10 1 10 0.435 9.9393 -0.5602 -0.7765 0 0 0

Bonds

1 1 1 2
2 2 2 3
3 3 3 4
4 4 4 5
5 5 5 6
6 6 6 7
7 7 7 8
8 8 8 9
9 9 9 10
