# FEASST data file 
# "1,2-dimethoxyethane" 
# trappe_parameters_29.txt 
# COCCOC 

6 atoms 
5 bonds 

6 atom types 
5 bond types 

0.0 5.9708 xlo xhi 
-0.6986 0.29159999999999997 ylo yhi 
-0.0218 0.0 zlo zhi 

Masses

1 15.035 
2 15.999 
3 14.027 
4 14.027 
5 15.999 
6 15.035 

Pair Coeffs

1 0.8148173365790176 3.75 
2 0.4572954439984282 2.80 
3 0.38246528043504907 3.95 
4 0.38246528043504907 3.95 
5 0.4572954439984282 2.80 
6 0.8148173365790176 3.75 

Bond Coeffs

1 -1 1.41 
2 -1 1.41 
3 -1 1.54 
4 -1 1.41 
5 -1 1.41 

Atoms

1 1 1 0.25 0.0 0.0 0.0 0 0 0
2 1 2 -0.500 1.2368999999999999 -0.6986 -0.0218 0 0 0
3 1 3 0.25 2.3417 0.1974 -0.0115 0 0 0
4 1 4 0.25 3.6290999999999998 -0.6043999999999999 -0.0114 0 0 0
5 1 5 -0.500 4.7339 0.29159999999999997 -0.0218 0 0 0
6 1 6 0.25 5.9708 -0.4071 0.0 0 0 0

Bonds

1 1 1 2
2 2 2 3
3 3 3 4
4 4 4 5
5 5 5 6
