# FEASST data file 
# 2-methoxyethan-1-ol 
# trappe_parameters_42.txt 
# COCCO 

6 atoms 
5 bonds 

6 atom types 
5 bond types 

0.0 4.7428 xlo xhi 
-0.5551999999999999 0.8025 ylo yhi 
-0.0034000000000000002 0.8275 zlo zhi 

Masses

1 15.035 
2 15.999 
2 15.999 
3 14.027 
3 14.027 
6 1.008 

Pair Coeffs

1 0.8148173365790176 3.75 
2 0.4572954439984282 2.80 
3 0.38246528043504907 3.95 
4 0.38246528043504907 3.95 
5 0.7732450234882514 3.02 
6 0.0 0.0 

Bond Coeffs

1 -1 1.41 
2 -1 1.41 
3 -1 1.54 
4 -1 1.43 
5 -1 0.945 

Atoms

1 1 1 0.25 0.0 0.0 0.0 0 0 0
2 1 2 -0.500 1.1967999999999999 0.7655000000000001 0.0138 0 0 0
2 1 2 -0.500 4.7428 -0.031399999999999983 0.0087 0 0 0
3 1 3 0.25 3.5904999999999996 0.8025 -0.0034000000000000002 0 0 0
3 1 3 0.25 2.3489999999999998 -0.0686 0.0054 0 0 0
6 1 6 0.435 4.7166999999999994 -0.5551999999999999 0.8275 0 0 0

Bonds

1 1 1 2
2 2 2 3
3 3 3 4
4 4 4 5
5 5 5 6
