# FEASST data file 
# n-butane 
# trappe_parameters_4.txt 
# CCCC 

4 atoms 
3 bonds 

4 atom types 
3 bond types 

-3.8587 0.0 xlo xhi 
-0.6664 0.36550000000000005 ylo yhi 
0.0 0.0142 zlo zhi 

Masses

1 15.035 
2 14.027 
2 14.027 
4 15.035 

Pair Coeffs

1 0.8148173365790176 3.75 
2 0.38246528043504907 3.95 
3 0.38246528043504907 3.95 
4 0.8148173365790176 3.75 

Bond Coeffs

1 -1 1.54 
2 -1 1.54 
3 -1 1.54 

Atoms

1 1 1 0.0 0.0 0.0 0.0 0 0 0
2 1 2 0.0 -1.3664 -0.6664 0.0142 0 0 0
2 1 2 0.0 -2.4924 0.36550000000000005 0.0142 0 0 0
4 1 4 0.0 -3.8587 -0.30110000000000003 0.0 0 0 0

Bonds

1 1 1 2
2 2 2 3
3 3 3 4
