# FEASST data file 
# "ethyl 
# trappe_parameters_13.txt 
# COCC 

4 atoms 
3 bonds 

4 atom types 
3 bond types 

-3.666 0.0 xlo xhi 
-0.6819999999999999 0.309 ylo yhi 
0.0 0.0 zlo zhi 

Masses

1 15.035 
2 14.027 
3 15.999 
4 15.035 

Pair Coeffs

1 0.8148173365790176 3.75 
2 0.38246528043504907 3.95 
3 0.4572954439984282 2.80 
4 0.8148173365790176 3.75 

Bond Coeffs

1 -1 1.54 
2 -1 1.41 
3 -1 1.41 

Atoms

1 1 1 0.0 0.0 0.0 0.0 0 0 0
2 1 2 0.25 -1.3515 -0.6819999999999999 0.0 0 0 0
3 1 3 -0.500 -2.3702 0.309 0.0 0 0 0
4 1 4 0.25 -3.666 -0.27459999999999996 0.0 0 0 0

Bonds

1 1 1 2
2 2 2 3
3 3 3 4
