# FEASST data file 
# 2-methylpropane 
# trappe_parameters_16.txt 
# CC(C)C 

4 atoms 
3 bonds 

4 atom types 
3 bond types 

-2.3339 0.0 xlo xhi 
-0.9256000000000001 1.5582 ylo yhi 
-0.4804 0.0 zlo zhi 

Masses

1 15.035 
2 13.018999999999998 
3 15.035 
4 15.035 

Pair Coeffs

1 0.8148173365790176 3.75 
2 0.0831446261815324 4.68 
3 0.8148173365790176 3.75 
4 0.8148173365790176 3.75 

Bond Coeffs

1 -1 1.54 
2 -1 1.54 
3 -1 1.54 

Atoms

1 1 1 0.0 0.0 0.0 0.0 0 0 0
2 1 2 0.0 -1.4342 0.2109 -0.4804 0 0 0
3 1 3 0.0 -2.3339 -0.9256000000000001 0.0 0 0 0
4 1 4 0.0 -1.9687 1.5582 0.0 0 0 0

Bonds

1 1 1 2
2 2 2 3
3 3 2 4
