# FEASST data file 
# "diethyl 
# trappe_parameters_87.txt 
# CCSSCC 

6 atoms 
5 bonds 

6 atom types 
5 bond types 

-3.0061 2.4496 xlo xhi 
-1.1723000000000001 1.1426999999999998 ylo yhi 
0.0 1.6055 zlo zhi 

Masses

1 32.06 
2 32.06 
5 14.027 
3 14.027 
4 15.035 
6 15.035 

Pair Coeffs

1 1.3718863319952848 3.720 
2 1.3718863319952848 3.720 
3 0.38246528043504907 3.950 
4 0.8148173365790176 3.75 
5 0.38246528043504907 3.950 
6 0.8148173365790176 3.75 

Bond Coeffs

1 -1 2.0400 
2 -1 1.8200 
3 -1 1.8200 
4 -1 1.54 
5 -1 1.54 

Atoms

1 1 1 -0.177 0.0 0.0 0.0 0 0 0
2 1 2 -0.177 -1.5448 1.1426999999999998 0.7329 0 0 0
5 1 5 0.177 -2.5355 -0.0941 1.6055 0 0 0
3 1 3 0.177 1.2019 0.09799999999999999 1.3483 0 0 0
4 1 4 0.0 -3.0061 -1.1723000000000001 0.6476999999999999 0 0 0
6 1 6 0.0 2.4496 -0.695 1.0086 0 0 0

Bonds

1 1 1 2
2 2 1 5
3 3 2 3
4 4 3 4
5 5 5 6
