# FEASST data file 
# o-xylene 
# trappe_parameters_69.txt 
# C1C=C(C(C)=CC=1)C 

8 atoms 
8 bonds 

8 atom types 
8 bond types 

-2.416 1.2810000000000001 xlo xhi 
-2.1631 0.7684 ylo yhi 
-0.0002 0.0003 zlo zhi 

Masses

1 12.011 
2 12.011 
7 15.035 
3 13.018999999999998 
8 15.035 
4 13.018999999999998 
5 13.018999999999998 

Pair Coeffs

1 0.17460371498121804 3.88 
2 0.17460371498121804 3.88 
3 0.41988036221673863 3.695 
4 0.41988036221673863 3.695 
5 0.41988036221673863 3.695 
6 0.41988036221673863 3.695 
7 0.8148173365790176 3.75 
8 0.8148173365790176 3.75 

Bond Coeffs

1 -1 1.40 
2 -1 1.54 
3 -1 1.40 
4 -1 1.54 
5 -1 1.40 
6 -1 1.40 
7 -1 1.40 
8 -1 1.40 

Atoms

1 1 1 0.0 0.0 0.0 0.0 0 0 0
2 1 2 0.0 0.00019999999999997797 -1.3949 0.0003 0 0 0
7 1 7 0.0 1.2807 0.7684 0.0 0 0 0
3 1 3 0.0 -1.2081 0.6973 -0.0001 0 0 0
8 1 8 0.0 1.2810000000000001 -2.1631 -0.0002 0 0 0
4 1 4 0.0 -2.416 -0.00019999999999997797 -0.0001 0 0 0
5 1 5 0.0 -1.2077 -2.0924 0.0001 0 0 0

Bonds

1 1 1 2
2 2 1 7
3 3 2 3
4 4 2 8
5 5 3 4
6 6 4 5
7 7 5 6
8 8 6 1
