# FEASST data file 
# "1,3-propanediol" 
# trappe_parameters_63.txt 
# C(CO)CO 

7 atoms 
6 bonds 

7 atom types 
6 bond types 

-2.4081 3.1794 xlo xhi 
-0.8536 0.5421 ylo yhi 
0.0 0.8209 zlo zhi 

Masses

1 14.027 
2 14.027 
4 15.999 
3 14.027 
6 15.999 
5 1.008 
7 1.008 

Pair Coeffs

1 0.38246528043504907 3.95 
2 0.38246528043504907 3.95 
3 0.38246528043504907 3.95 
4 0.7732450234882514 3.02 
5 0.0 0.0 
6 0.7732450234882514 3.02 
7 0.0 0.0 

Bond Coeffs

1 -1 1.54 
2 -1 1.43 
3 -1 1.54 
4 -1 1.43 
5 -1 0.945 
6 -1 0.945 

Atoms

1 1 1 0.265 0.0 0.0 0.0 0 0 0
2 1 2 0.0 -1.2632999999999999 -0.8463 0.0104 0 0 0
4 1 4 -0.700 -2.4081 -0.0040000000000000036 0.0174 0 0 0
3 1 3 0.265 1.2573 -0.8536 0.012199999999999999 0 0 0
6 1 6 -0.700 2.3926999999999996 0.0007999999999999674 0.0165 0 0 0
5 1 5 0.435 3.1794 -0.5705 0.0242 0 0 0
7 1 7 0.435 -2.3652 0.5421 0.8209 0 0 0

Bonds

1 1 1 2
2 2 1 4
3 3 2 3
4 4 3 6
5 5 4 5
6 6 6 7
