# FEASST data file 
# ethane 
# trappe_parameters_2.txt 
# CC 

2 atoms 
1 bonds 

2 atom types 
1 bond types 

0.0 1.512 xlo xhi 
0.0 0.0 ylo yhi 
0.0 0.0 zlo zhi 

Masses

1 15.035 
1 15.035 

Pair Coeffs

1 0.8148173365790176 3.75 
2 0.8148173365790176 3.75 

Bond Coeffs

1 -1 1.54 

Atoms

1 1 1 0.0 0.0 0.0 0.0 0 0 0
1 1 1 0.0 1.512 0.0 0.0 0 0 0

Bonds

1 1 1 2
