# FEASST data file 
# "2-hydroxyethyl 
# trappe_parameters_101.txt 
# O=C(OCCO)C=C 

9 atoms 
8 bonds 

9 atom types 
8 bond types 

0.0 6.9432 xlo xhi 
-2.0657 0.7404999999999999 ylo yhi 
-0.5009 0.4372 zlo zhi 

Masses

1 14.027 
2 13.018999999999998 
3 12.011 
4 15.999 
5 15.999 
6 14.027 
7 14.027 
8 15.999 
9 1.008 

Pair Coeffs

1 0.7067293225430255 3.675 
2 0.43235205614396854 3.710 
3 0.3325785047261296 3.820 
4 0.4572954439984282 2.800 
5 0.6568425468341059 3.050 
6 0.38246528043504907 3.95 
7 0.38246528043504907 3.95 
8 0.7732450234882514 3.02 
9 0.0 0.0 

Bond Coeffs

1 -1 1.33 
2 -1 1.5200 
3 -1 1.3440 
4 -1 1.2000 
5 -1 1.41 
6 -1 1.54 
7 -1 1.43 
8 -1 0.945 

Atoms

1 1 1 0.0 0.0 0.0 0.0 0 0 0
2 1 2 0.000 1.3087000000000002 0.19599999999999995 0.18439999999999998 0 0 0
3 1 3 0.400 2.2562 -0.9246000000000001 0.011799999999999998 0 0 0
4 1 4 -0.250 3.5064 -0.4484 0.2575 0 0 0
5 1 5 -0.400 1.9522000000000002 -2.0657 -0.2979 0 0 0
6 1 6 0.25 5.885 -0.7239 0.4372 0 0 0
7 1 7 0.265 4.5642000000000005 -1.405 0.13419999999999999 0 0 0
8 1 8 -0.700 6.0922 0.32519999999999993 -0.5009 0 0 0
9 1 9 0.435 6.9432 0.7404999999999999 -0.2802 0 0 0

Bonds

1 1 1 2
2 2 2 3
3 3 3 4
4 4 3 5
5 5 4 6
6 6 6 7
7 7 7 8
8 8 8 9
