# FEASST data file 
# "dimethyl 
# trappe_parameters_127.txt 
# CP(=O)(OC)OC 

7 atoms 
6 bonds 

7 atom types 
6 bond types 

-2.1313 2.1759 xlo xhi 
-1.5195999999999998 1.2252 ylo yhi 
-0.6728 1.7803 zlo zhi 

Masses

3 15.999 
1 30.973761998 
5 15.035 
2 15.999 
4 15.999 
6 15.035 
7 15.035 

Pair Coeffs

1 0.7150437851611787 4.000 
2 0.4572954439984282 2.800 
3 0.6568425468341059 3.050 
4 0.4572954439984282 2.800 
5 0.8148173365790176 3.750 
6 0.8148173365790176 3.750 
7 0.8148173365790176 3.750 

Bond Coeffs

1 -1 1.4580 
2 -1 1.7900 
3 -1 1.5800 
4 -1 1.5800 
5 -1 1.41 
6 -1 1.41 

Atoms

3 1 3 -0.800 -0.5497 1.2252 -0.6728 0 0 0
1 1 1 1.440 0.0 0.0 0.0 0 0 0
5 1 5 -0.140 -0.014400000000000003 0.09039999999999998 1.7803 0 0 0
2 1 2 -0.530 1.5354999999999999 -0.32089999999999996 -0.3989 0 0 0
4 1 4 -0.530 -0.7857 -1.3695 -0.3569 0 0 0
6 1 6 0.280 2.1759 -1.4976999999999998 0.0606 0 0 0
7 1 7 0.280 -2.1313 -1.5195999999999998 0.060200000000000004 0 0 0

Bonds

1 1 3 1
2 2 5 1
3 3 2 1
4 4 4 1
5 5 6 2
6 6 7 4
