# FEASST data file 
# methanol 
# trappe_parameters_18.txt 
# OC 

3 atoms 
2 bonds 

3 atom types 
2 bond types 

0.0 1.7015 xlo xhi 
-0.8804 0.0 ylo yhi 
-0.298 0.0 zlo zhi 

Masses

1 15.035 
2 15.999 
3 1.008 

Pair Coeffs

1 0.8148173365790176 3.75 
2 0.7732450234882514 3.02 
3 0.0 0.0 

Bond Coeffs

1 -1 1.43 
2 -1 0.945 

Atoms

1 1 1 0.265 0.0 0.0 0.0 0 0 0
2 1 2 -0.700 1.4158 0.0 0.0 0 0 0
3 1 3 0.435 1.7015 -0.8804 -0.298 0 0 0

Bonds

1 1 1 2
2 2 2 3
