# FEASST data file 
# tetrahydrofuran 
# trappe_parameters_106.txt 
# C1COCC1 

5 atoms 
5 bonds 

5 atom types 
5 bond types 

-2.2435 0.0 xlo xhi 
-1.1555 1.1562 ylo yhi 
-0.2205 0.2205 zlo zhi 

Masses

1 15.999 
2 14.027 
2 14.027 
2 14.027 
3 14.027 

Pair Coeffs

1 1.5797478974491157 2.200 
2 0.4681042454020274 3.880 
3 0.4681042454020274 3.880 
4 0.4681042454020274 3.880 
5 0.4681042454020274 3.880 

Bond Coeffs

1 -1 1.4400 
2 -1 1.54 
3 -1 1.54 
4 -1 1.54 
5 -1 1.4400 

Atoms

1 1 1 -0.410 0.0 0.0 0.0 0 0 0
2 1 2 0.160 -0.8392 -1.1555 0.1374 0 0 0
2 1 2 0.160 -2.243 0.7214999999999999 0.2205 0 0 0
2 1 2 0.160 -0.8381999999999998 1.1562 -0.1375 0 0 0
3 1 3 0.045 -2.2435 -0.7197 -0.2205 0 0 0

Bonds

1 1 1 2
2 2 2 3
3 3 3 4
4 4 4 5
5 5 5 1
