# FEASST data file 
# 2-methyl-1-propanethiol 
# trappe_parameters_78.txt 
# SCC(C)C 

6 atoms 
5 bonds 

6 atom types 
5 bond types 

-1.6084 2.5377 xlo xhi 
-0.019400000000000084 2.1795999999999998 ylo yhi 
-0.5875 0.3259 zlo zhi 

Masses

1 14.027 
2 13.018999999999998 
5 32.06 
3 15.035 
4 15.035 
6 1.008 

Pair Coeffs

1 0.38246528043504907 3.950 
2 0.0831446261815324 4.68 
3 0.8148173365790176 3.75 
4 0.8148173365790176 3.75 
5 1.9289553274115518 3.620 
6 0.0 0.000 

Bond Coeffs

1 -1 1.54 
2 -1 1.8200 
3 -1 1.54 
4 -1 1.54 
5 -1 1.34 

Atoms

1 1 1 0.171 0.0 0.0 0.0 0 0 0
2 1 2 0.0 1.2278 0.7167 -0.5875 0 0 0
5 1 5 -0.377 -1.6084 0.7441 -0.4141 0 0 0
3 1 3 0.0 2.5377 -0.019400000000000084 -0.2978 0 0 0
4 1 4 0.0 1.3249 2.1795999999999998 -0.1495 0 0 0
6 1 6 0.206 -1.4663999999999997 1.8532 0.3259 0 0 0

Bonds

1 1 1 2
2 2 1 5
3 3 2 3
4 4 2 4
5 5 5 6
