# FEASST data file 
# pentanal 
# trappe_parameters_46.txt 
# O=CCCCC 

6 atoms 
5 bonds 

6 atom types 
5 bond types 

0.0 5.209 xlo xhi 
-1.4707 0.33320000000000005 ylo yhi 
0.0 0.0436 zlo zhi 

Masses

1 15.035 
2 14.027 
2 14.027 
3 14.027 
5 13.018999999999998 
6 15.999 

Pair Coeffs

1 0.8148173365790176 3.75 
2 0.38246528043504907 3.95 
3 0.38246528043504907 3.95 
4 0.38246528043504907 3.95 
5 0.448980981380275 3.52 
6 0.6568425468341059 3.05 

Bond Coeffs

1 -1 1.54 
2 -1 1.54 
3 -1 1.54 
4 -1 1.52 
5 -1 1.217 

Atoms

1 1 1 0.0 0.0 0.0 0.0 0 0 0
2 1 2 0.0 1.0979 -1.0519 0.0022000000000000006 0 0 0
2 1 2 0.0 2.4853 -0.4134 0.0436 0 0 0
3 1 3 0.0 3.5839 -1.4707 0.0061 0 0 0
5 1 5 0.525 4.9687 -0.8694 0.0067 0 0 0
6 1 6 -0.482 5.209 0.33320000000000005 0.0014000000000000002 0 0 0

Bonds

1 1 1 2
2 2 2 3
3 3 3 4
4 4 4 5
5 5 5 6
