# FEASST data file 
# "pentane-1,5-diol" 
# trappe_parameters_36.txt 
# OCCCCCO 

9 atoms 
8 bonds 

9 atom types 
8 bond types 

-0.02619999999999978 7.3049 xlo xhi 
-1.3881999999999999 0.04520000000000002 ylo yhi 
0.0 0.8326 zlo zhi 

Masses

1 1.008 
2 15.999 
3 14.027 
3 14.027 
3 14.027 
4 14.027 
5 14.027 
8 15.999 
9 1.008 

Pair Coeffs

1 0.0 0.0 
2 0.7732450234882514 3.02 
3 0.38246528043504907 3.95 
4 0.38246528043504907 3.95 
5 0.38246528043504907 3.95 
6 0.38246528043504907 3.95 
7 0.38246528043504907 3.95 
8 0.7732450234882514 3.02 
9 0.0 0.0 

Bond Coeffs

1 -1 0.945 
2 -1 1.43 
3 -1 1.54 
4 -1 1.54 
5 -1 1.54 
6 -1 1.54 
7 -1 1.43 
8 -1 0.945 

Atoms

1 1 1 0.435 0.0 0.0 0.0 0 0 0
2 1 2 -0.700 -0.02619999999999978 -0.5137 0.8252 0 0 0
3 1 3 0.265 1.105 -1.3734 0.8318 0 0 0
3 1 3 0.265 3.6281000000000003 -1.3881999999999999 0.8150000000000001 0 0 0
3 1 3 0.265 4.8932 -0.5250999999999999 0.8205 0 0 0
4 1 4 0.0 2.3681 -0.5248999999999999 0.7943 0 0 0
5 1 5 0.0 6.1642 -1.3657 0.8079000000000001 0 0 0
8 1 8 -0.700 7.3049 -0.52 0.8326 0 0 0
9 1 9 0.435 7.268000000000001 0.04520000000000002 0.042200000000000015 0 0 0

Bonds

1 1 1 2
2 2 2 3
3 3 3 4
4 4 4 5
5 5 5 6
6 6 6 7
7 7 7 8
8 8 8 9
