# FEASST data file 
# thiophene 
# trappe_parameters_88.txt 
# C1=CSC=C1 

5 atoms 
5 bonds 

5 atom types 
5 bond types 

-2.469 0.0 xlo xhi 
-1.2288999999999999 1.2306000000000001 ylo yhi 
-0.0001 0.0001 zlo zhi 

Masses

1 32.06 
2 13.018999999999998 
2 13.018999999999998 
2 13.018999999999998 
3 13.018999999999998 

Pair Coeffs

1 1.4966032712675832 3.600 
2 0.41988036221673863 3.695 
3 0.41988036221673863 3.695 
4 0.41988036221673863 3.695 
5 0.41988036221673863 3.695 

Bond Coeffs

1 -1 1.7100 
2 -1 1.40 
3 -1 1.40 
4 -1 1.40 
5 -1 1.7100 

Atoms

1 1 1 0.000 0.0 0.0 0.0 0 0 0
2 1 2 0.0 -1.1907 1.2306000000000001 0.0 0 0 0
2 1 2 0.0 -2.469 -0.7105 0.0001 0 0 0
2 1 2 0.0 -1.1926999999999999 -1.2288999999999999 -0.0001 0 0 0
3 1 3 0.0 -2.4677 0.7142999999999999 0.0 0 0 0

Bonds

1 1 1 2
2 2 2 3
3 3 3 4
4 4 4 5
5 5 5 1
