# FEASST data file 
# propan-1-ol 
# trappe_parameters_20.txt 
# OCCC 

5 atoms 
4 bonds 

5 atom types 
4 bond types 

0.0 3.7837 xlo xhi 
-0.8455 0.37160000000000004 ylo yhi 
-0.0002000000000000001 0.8093 zlo zhi 

Masses

1 15.035 
2 14.027 
3 14.027 
4 15.999 
5 1.008 

Pair Coeffs

1 0.8148173365790176 3.75 
2 0.38246528043504907 3.95 
3 0.38246528043504907 3.95 
4 0.7732450234882514 3.02 
5 0.0 0.0 

Bond Coeffs

1 -1 1.54 
2 -1 1.54 
3 -1 1.43 
4 -1 0.945 

Atoms

1 1 1 0.0 0.0 0.0 0.0 0 0 0
2 1 2 0.0 1.3689 -0.6565 0.0074 0 0 0
3 1 3 0.265 2.4897 0.37160000000000004 0.0072 0 0 0
4 1 4 -0.700 3.737 -0.3087 -0.0002000000000000001 0 0 0
5 1 5 0.435 3.7837 -0.8455 0.8093 0 0 0

Bonds

1 1 1 2
2 2 2 3
3 3 3 4
4 4 4 5
