# FEASST data file 
# pentan-1-ol 
# trappe_parameters_34.txt 
# CCCCCO 

7 atoms 
6 bonds 

7 atom types 
6 bond types 

0.0 6.2157 xlo xhi 
-0.3045 1.0163 ylo yhi 
-0.8098000000000001 0.0502 zlo zhi 

Masses

1 15.035 
2 14.027 
3 14.027 
4 14.027 
5 14.027 
6 15.999 
7 1.008 

Pair Coeffs

1 0.8148173365790176 3.75 
2 0.38246528043504907 3.95 
3 0.38246528043504907 3.95 
4 0.38246528043504907 3.95 
5 0.38246528043504907 3.95 
6 0.7732450234882514 3.02 
7 0.0 0.0 

Bond Coeffs

1 -1 1.54 
2 -1 1.54 
3 -1 1.54 
4 -1 1.54 
5 -1 1.43 
6 -1 0.945 

Atoms

1 1 1 0.0 0.0 0.0 0.0 0 0 0
2 1 2 0.0 1.3071000000000002 0.7761 0.0276 0 0 0
3 1 3 0.0 2.5144 -0.16099999999999998 0.0502 0 0 0
4 1 4 0.0 3.8255000000000003 0.6218 0.0434 0 0 0
5 1 5 0.265 5.0331 -0.3045 0.023200000000000002 0 0 0
6 1 6 -0.700 6.2157 0.4829 0.003100000000000002 0 0 0
7 1 7 0.435 6.1999 1.0163 -0.8098000000000001 0 0 0

Bonds

1 1 1 2
2 2 2 3
3 3 3 4
4 4 4 5
5 5 5 6
6 6 6 7
