# FEASST data file 
# n-pentane 
# trappe_parameters_5.txt 
# CCCCC 

5 atoms 
4 bonds 

5 atom types 
4 bond types 

0.0 5.0397 xlo xhi 
-0.8541000000000001 0.007699999999999985 ylo yhi 
-0.0343 0.0 zlo zhi 

Masses

1 15.035 
2 14.027 
2 14.027 
2 14.027 
5 15.035 

Pair Coeffs

1 0.8148173365790176 3.75 
2 0.38246528043504907 3.95 
3 0.38246528043504907 3.95 
4 0.38246528043504907 3.95 
5 0.8148173365790176 3.75 

Bond Coeffs

1 -1 1.54 
2 -1 1.54 
3 -1 1.54 
4 -1 1.54 

Atoms

1 1 1 0.0 0.0 0.0 0.0 0 0 0
2 1 2 0.0 1.2577999999999998 -0.8541000000000001 -0.0116 0 0 0
2 1 2 0.0 2.5199 0.007699999999999985 -0.0343 0 0 0
2 1 2 0.0 3.782 -0.8541000000000001 -0.0116 0 0 0
5 1 5 0.0 5.0397 0.0 0.0 0 0 0

Bonds

1 1 1 2
2 2 2 3
3 3 3 4
4 4 4 5
