# FEASST data file 
# sarin 
# trappe_parameters_128.txt 
# FP(C)(=O)OC(C)C 

8 atoms 
7 bonds 

8 atom types 
7 bond types 

-3.8487 1.0759999999999998 xlo xhi 
-1.5617 0.7881 ylo yhi 
-1.6833 0.9288 zlo zhi 

Masses

1 30.973761998 
3 15.999 
4 15.035 
5 18.998403163 
2 15.999 
6 13.018999999999998 
7 15.035 
8 15.035 

Pair Coeffs

1 0.7150437851611787 4.000 
2 0.4572954439984282 2.800 
3 0.6568425468341059 3.050 
4 0.8148173365790176 3.750 
5 0.22199615190469152 2.950 
6 0.0831446261815324 4.680 
7 0.8148173365790176 3.750 
8 0.8148173365790176 3.750 

Bond Coeffs

1 -1 1.4580 
2 -1 1.7900 
3 -1 1.5800 
4 -1 1.5800 
5 -1 1.41 
6 -1 1.54 
7 -1 1.54 

Atoms

1 1 1 1.400 0.0 0.0 0.0 0 0 0
3 1 3 -0.770 1.0759999999999998 0.48660000000000003 0.9288 0 0 0
4 1 4 -0.100 0.23120000000000007 0.5357 -1.6833 0 0 0
5 1 5 -0.340 -0.13860000000000006 -1.5617 0.1167 0 0 0
2 1 2 -0.630 -1.4748999999999999 0.5331 0.4042 0 0 0
6 1 6 0.620 -2.6043000000000003 0.09570000000000001 -0.3307 0 0 0
7 1 7 -0.080 -3.8487 0.7881 0.204 0 0 0
8 1 8 -0.080 -2.711 -1.4183 -0.2309 0 0 0

Bonds

1 1 1 3
2 2 1 4
3 3 1 5
4 4 1 2
5 5 2 6
6 6 6 7
7 7 6 8
