# FEASST data file 
# 1-octene 
# trappe_parameters_59.txt 
# C=CCCCCCC 

8 atoms 
7 bonds 

8 atom types 
7 bond types 

0.0 8.491399999999999 xlo xhi 
-0.02360000000000001 1.0837 ylo yhi 
0.0 0.9016000000000001 zlo zhi 

Masses

1 14.027 
2 13.018999999999998 
3 14.027 
4 14.027 
5 14.027 
6 14.027 
7 14.027 
8 15.035 

Pair Coeffs

1 0.7067293225430255 3.675 
2 0.3907797430532023 3.73 
3 0.38246528043504907 3.95 
4 0.38246528043504907 3.95 
5 0.38246528043504907 3.95 
6 0.38246528043504907 3.95 
7 0.38246528043504907 3.95 
8 0.8148173365790176 3.75 

Bond Coeffs

1 -1 1.33 
2 -1 1.54 
3 -1 1.54 
4 -1 1.54 
5 -1 1.54 
6 -1 1.54 
7 -1 1.54 

Atoms

1 1 1 0.0 0.0 0.0 0.0 0 0 0
2 1 2 0.0 0.9358999999999997 0.317 0.9016000000000001 0 0 0
3 1 3 0.0 2.1854999999999993 1.0837 0.5801000000000001 0 0 0
4 1 4 0.0 4.740799999999999 0.9629000000000001 0.5058 0 0 0
5 1 5 0.0 3.4359999999999995 0.2539 0.8815000000000001 0 0 0
6 1 6 0.0 5.9876 0.10670000000000002 0.7381000000000001 0 0 0
7 1 7 0.0 7.2516 0.8352999999999999 0.27990000000000004 0 0 0
8 1 8 0.0 8.491399999999999 -0.02360000000000001 0.47230000000000005 0 0 0

Bonds

1 1 1 2
2 2 2 3
3 3 3 4
4 4 4 5
5 5 5 6
6 6 6 7
7 7 7 8
