# FEASST data file 
# m-xylene 
# trappe_parameters_70.txt 
# C1=CC=C(C=C1C)C 

8 atoms 
8 bonds 

8 atom types 
8 bond types 

-1.2917999999999998 3.7077 xlo xhi 
-0.7453000000000001 2.0924 ylo yhi 
-0.001 9.999999999999999e-05 zlo zhi 

Masses

1 12.011 
2 13.018999999999998 
1 12.011 
7 15.035 
2 13.018999999999998 
4 13.018999999999998 
8 15.035 
4 13.018999999999998 

Pair Coeffs

1 0.17460371498121804 3.88 
2 0.41988036221673863 3.695 
3 0.17460371498121804 3.88 
4 0.41988036221673863 3.695 
5 0.41988036221673863 3.695 
6 0.41988036221673863 3.695 
7 0.8148173365790176 3.75 
8 0.8148173365790176 3.75 

Bond Coeffs

1 -1 1.40 
2 -1 1.54 
3 -1 1.40 
4 -1 1.40 
5 -1 1.54 
6 -1 1.40 
7 -1 1.40 
8 -1 1.40 

Atoms

1 1 1 0.0 0.0 0.0 0.0 0 0 0
2 1 2 0.0 1.2082 -0.6972 -0.0004 0 0 0
1 1 1 0.0 2.416 0.00039999999999995595 -0.001 0 0 0
7 1 7 0.0 3.7077 -0.7451000000000001 9.999999999999999e-05 0 0 0
2 1 2 0.0 -0.00029999999999996696 1.3949 0.0 0 0 0
4 1 4 0.0 2.4158 1.3952 -0.0008 0 0 0
8 1 8 0.0 -1.2917999999999998 -0.7453000000000001 -0.0008 0 0 0
4 1 4 0.0 1.2076 2.0924 -0.0004 0 0 0

Bonds

1 1 1 2
2 2 1 7
3 3 2 3
4 4 3 4
5 5 3 8
6 6 4 5
7 7 5 6
8 8 6 1
